<?xml version="1.0" encoding="ISO-8859-1"?>
<modeling>
 <generator>
  <i name="program" type="string">vasp </i>
  <i name="version" type="string">5.4.4.18Apr17-6-g9f103f2a35  </i>
  <i name="subversion" type="string">(build May 28 2022 13:08:32) complex            parallel </i>
  <i name="platform" type="string">LinuxIFC </i>
  <i name="date" type="string">2022 05 28 </i>
  <i name="time" type="string">19:14:40 </i>
 </generator>
 <incar>
  <i type="string" name="SYSTEM">BiSeI</i>
  <i type="string" name="PREC">accurate</i>
  <i type="logical" name="ADDGRID"> T  </i>
  <i type="int" name="NELM">   100</i>
  <i type="int" name="NELMDL">    -6</i>
  <i type="int" name="NELMIN">     5</i>
  <i name="EDIFF">      0.00000001</i>
  <i name="ENCUT">    350.00000000</i>
  <i type="int" name="NEDOS">  5000</i>
  <i type="string" name="LREAL"> AUTO</i>
  <i type="int" name="ISMEAR">     0</i>
  <i name="SIGMA">      0.05000000</i>
  <i name="KSPACING">      0.20000000</i>
  <i type="int" name="LMAXMIX">     4</i>
  <i type="logical" name="LWAVE"> F  </i>
  <i type="logical" name="LCHARG"> F  </i>
  <i type="int" name="LORBIT">    11</i>
  <v type="int" name="KPOINT_BSE">    -1     0     0     0</v>
  <i type="int" name="NELM">   100</i>
  <i type="string" name="GGA"> MK</i>
  <i name="PARAM1">      0.12340000</i>
  <i name="PARAM2">      1.00000000</i>
  <i type="logical" name="LUSE_VDW"> T  </i>
  <i name="AGGAC">      0.00000000</i>
 </incar>
 <structure name="primitive_cell" >
  <crystal>
   <varray name="basis" >
    <v>       8.70460033       0.00000000       0.00000000 </v>
    <v>       0.00000000       4.21652794       0.00000000 </v>
    <v>       0.00000000       0.00000000      10.59076309 </v>
   </varray>
   <i name="volume">    388.71479536 </i>
   <varray name="rec_basis" >
    <v>       0.11488178       0.00000000       0.00000000 </v>
    <v>       0.00000000       0.23716195       0.00000000 </v>
    <v>       0.00000000       0.00000000       0.09442190 </v>
   </varray>
  </crystal>
  <varray name="positions" >
   <v>      -0.13173772       0.24827936      -0.37166602 </v>
   <v>       0.17133448       0.25052543      -0.44706780 </v>
   <v>      -0.17192814      -0.24869555       0.44713544 </v>
   <v>       0.01654346      -0.25413261      -0.17278280 </v>
   <v>      -0.48538218      -0.24999610      -0.32839943 </v>
   <v>      -0.32902613       0.24966666      -0.05123064 </v>
   <v>       0.13262254      -0.24878647       0.36882659 </v>
   <v>       0.48500027       0.24999762       0.32869978 </v>
   <v>      -0.01456007       0.24959164       0.16728596 </v>
   <v>       0.36985528       0.25524342      -0.12511169 </v>
   <v>      -0.36281801      -0.24707408       0.12950710 </v>
   <v>       0.32933127      -0.25021958       0.05284136 </v>
  </varray>
 </structure>
 <varray name="primitive_index" >
  <v type="int" >        1 </v>
  <v type="int" >        5 </v>
  <v type="int" >        7 </v>
  <v type="int" >        9 </v>
  <v type="int" >       12 </v>
  <v type="int" >        8 </v>
  <v type="int" >        3 </v>
  <v type="int" >       10 </v>
  <v type="int" >       11 </v>
  <v type="int" >        4 </v>
  <v type="int" >        2 </v>
  <v type="int" >        6 </v>
 </varray>
 <kpoints>
  <generation param="Gamma">
   <v type="int" name="divisions">       4        8        3 </v>
   <v name="usershift">      0.00000000       0.00000000       0.00000000 </v>
   <v name="genvec1">      0.25000000       0.00000000       0.00000000 </v>
   <v name="genvec2">      0.00000000       0.12500000       0.00000000 </v>
   <v name="genvec3">      0.00000000       0.00000000       0.33333333 </v>
   <v name="shift">      0.00000000       0.00000000       0.00000000 </v>
  </generation>
  <varray name="kpointlist" >
   <v>       0.00000000       0.00000000       0.00000000 </v>
   <v>       0.25000000       0.00000000       0.00000000 </v>
   <v>       0.50000000       0.00000000       0.00000000 </v>
   <v>       0.00000000       0.12500000       0.00000000 </v>
   <v>       0.25000000       0.12500000       0.00000000 </v>
   <v>       0.50000000       0.12500000       0.00000000 </v>
   <v>      -0.25000000       0.12500000       0.00000000 </v>
   <v>       0.00000000       0.25000000       0.00000000 </v>
   <v>       0.25000000       0.25000000       0.00000000 </v>
   <v>       0.50000000       0.25000000       0.00000000 </v>
   <v>      -0.25000000       0.25000000       0.00000000 </v>
   <v>       0.00000000       0.37500000       0.00000000 </v>
   <v>       0.25000000       0.37500000       0.00000000 </v>
   <v>       0.50000000       0.37500000       0.00000000 </v>
   <v>      -0.25000000       0.37500000       0.00000000 </v>
   <v>       0.00000000       0.50000000       0.00000000 </v>
   <v>       0.25000000       0.50000000       0.00000000 </v>
   <v>       0.50000000       0.50000000       0.00000000 </v>
   <v>       0.00000000       0.00000000       0.33333333 </v>
   <v>       0.25000000       0.00000000       0.33333333 </v>
   <v>       0.50000000       0.00000000       0.33333333 </v>
   <v>      -0.25000000       0.00000000       0.33333333 </v>
   <v>       0.00000000       0.12500000       0.33333333 </v>
   <v>       0.25000000       0.12500000       0.33333333 </v>
   <v>       0.50000000       0.12500000       0.33333333 </v>
   <v>      -0.25000000       0.12500000       0.33333333 </v>
   <v>       0.00000000       0.25000000       0.33333333 </v>
   <v>       0.25000000       0.25000000       0.33333333 </v>
   <v>       0.50000000       0.25000000       0.33333333 </v>
   <v>      -0.25000000       0.25000000       0.33333333 </v>
   <v>       0.00000000       0.37500000       0.33333333 </v>
   <v>       0.25000000       0.37500000       0.33333333 </v>
   <v>       0.50000000       0.37500000       0.33333333 </v>
   <v>      -0.25000000       0.37500000       0.33333333 </v>
   <v>       0.00000000       0.50000000       0.33333333 </v>
   <v>       0.25000000       0.50000000       0.33333333 </v>
   <v>       0.50000000       0.50000000       0.33333333 </v>
   <v>      -0.25000000       0.50000000       0.33333333 </v>
   <v>       0.00000000      -0.37500000       0.33333333 </v>
   <v>       0.25000000      -0.37500000       0.33333333 </v>
   <v>       0.50000000      -0.37500000       0.33333333 </v>
   <v>      -0.25000000      -0.37500000       0.33333333 </v>
   <v>       0.00000000      -0.25000000       0.33333333 </v>
   <v>       0.25000000      -0.25000000       0.33333333 </v>
   <v>       0.50000000      -0.25000000       0.33333333 </v>
   <v>      -0.25000000      -0.25000000       0.33333333 </v>
   <v>       0.00000000      -0.12500000       0.33333333 </v>
   <v>       0.25000000      -0.12500000       0.33333333 </v>
   <v>       0.50000000      -0.12500000       0.33333333 </v>
   <v>      -0.25000000      -0.12500000       0.33333333 </v>
  </varray>
  <varray name="weights" >
   <v>       0.01041667 </v>
   <v>       0.02083333 </v>
   <v>       0.01041667 </v>
   <v>       0.02083333 </v>
   <v>       0.02083333 </v>
   <v>       0.02083333 </v>
   <v>       0.02083333 </v>
   <v>       0.02083333 </v>
   <v>       0.02083333 </v>
   <v>       0.02083333 </v>
   <v>       0.02083333 </v>
   <v>       0.02083333 </v>
   <v>       0.02083333 </v>
   <v>       0.02083333 </v>
   <v>       0.02083333 </v>
   <v>       0.01041667 </v>
   <v>       0.02083333 </v>
   <v>       0.01041667 </v>
   <v>       0.02083333 </v>
   <v>       0.02083333 </v>
   <v>       0.02083333 </v>
   <v>       0.02083333 </v>
   <v>       0.02083333 </v>
   <v>       0.02083333 </v>
   <v>       0.02083333 </v>
   <v>       0.02083333 </v>
   <v>       0.02083333 </v>
   <v>       0.02083333 </v>
   <v>       0.02083333 </v>
   <v>       0.02083333 </v>
   <v>       0.02083333 </v>
   <v>       0.02083333 </v>
   <v>       0.02083333 </v>
   <v>       0.02083333 </v>
   <v>       0.02083333 </v>
   <v>       0.02083333 </v>
   <v>       0.02083333 </v>
   <v>       0.02083333 </v>
   <v>       0.02083333 </v>
   <v>       0.02083333 </v>
   <v>       0.02083333 </v>
   <v>       0.02083333 </v>
   <v>       0.02083333 </v>
   <v>       0.02083333 </v>
   <v>       0.02083333 </v>
   <v>       0.02083333 </v>
   <v>       0.02083333 </v>
   <v>       0.02083333 </v>
   <v>       0.02083333 </v>
   <v>       0.02083333 </v>
  </varray>
 </kpoints>
 <parameters>
  <separator name="general" >
   <i type="string" name="SYSTEM">BiSeI</i>
   <i type="logical" name="LCOMPAT"> F  </i>
  </separator>
  <separator name="electronic" >
   <i type="string" name="PREC">accura</i>
   <i name="ENMAX">    350.00000000</i>
   <i name="ENAUG">    446.84200000</i>
   <i name="EDIFF">      0.00000001</i>
   <i type="int" name="IALGO">    38</i>
   <i type="int" name="IWAVPR">    10</i>
   <i type="int" name="NBANDS">    68</i>
   <i name="NELECT">    112.00000000</i>
   <i type="int" name="TURBO">     0</i>
   <i type="int" name="IRESTART">     0</i>
   <i type="int" name="NREBOOT">     0</i>
   <i type="int" name="NMIN">     0</i>
   <i name="EREF">      0.00000000</i>
   <separator name="electronic smearing" >
    <i type="int" name="ISMEAR">     0</i>
    <i name="SIGMA">      0.05000000</i>
    <i name="KSPACING">      0.20000000</i>
    <i type="logical" name="KGAMMA"> T  </i>
   </separator>
   <separator name="electronic projectors" >
    <i type="logical" name="LREAL"> T  </i>
    <v name="ROPT">     -0.00025000     -0.00025000     -0.00025000</v>
    <i type="int" name="LMAXPAW">  -100</i>
    <i type="int" name="LMAXMIX">     4</i>
    <i type="logical" name="NLSPLINE"> F  </i>
   </separator>
   <separator name="electronic startup" >
    <i type="int" name="ISTART">     0</i>
    <i type="int" name="ICHARG">     2</i>
    <i type="int" name="INIWAV">     1</i>
   </separator>
   <separator name="electronic spin" >
    <i type="int" name="ISPIN">     1</i>
    <i type="logical" name="LNONCOLLINEAR"> F  </i>
    <v name="MAGMOM">      1.00000000      1.00000000      1.00000000      1.00000000      1.00000000      1.00000000      1.00000000      1.00000000      1.00000000      1.00000000      1.00000000      1.00000000</v>
    <i name="NUPDOWN">     -1.00000000</i>
    <i type="logical" name="LSORBIT"> F  </i>
    <v name="SAXIS">      0.00000000      0.00000000      1.00000000</v>
    <i type="logical" name="LSPIRAL"> F  </i>
    <v name="QSPIRAL">      0.00000000      0.00000000      0.00000000</v>
    <i type="logical" name="LZEROZ"> F  </i>
   </separator>
   <separator name="electronic exchange-correlation" >
    <i type="logical" name="LASPH"> F  </i>
    <i type="logical" name="LMETAGGA"> F  </i>
   </separator>
   <separator name="electronic convergence" >
    <i type="int" name="NELM">   100</i>
    <i type="int" name="NELMDL">    -6</i>
    <i type="int" name="NELMIN">     5</i>
    <i name="ENINI">    350.00000000</i>
    <separator name="electronic convergence detail" >
     <i type="logical" name="LDIAG"> T  </i>
     <i type="logical" name="LSUBROT"> F  </i>
     <i name="WEIMIN">      0.00000000</i>
     <i name="EBREAK">      0.00000000</i>
     <i name="DEPER">      0.30000000</i>
     <i type="int" name="NRMM">     4</i>
     <i name="TIME">      0.40000000</i>
    </separator>
   </separator>
   <separator name="electronic mixer" >
    <i name="AMIX">      0.40000000</i>
    <i name="BMIX">      1.00000000</i>
    <i name="AMIN">      0.10000000</i>
    <i name="AMIX_MAG">      1.60000000</i>
    <i name="BMIX_MAG">      1.00000000</i>
    <separator name="electronic mixer details" >
     <i type="int" name="IMIX">     4</i>
     <i type="logical" name="MIXFIRST"> F  </i>
     <i type="int" name="MAXMIX">   -45</i>
     <i name="WC">    100.00000000</i>
     <i type="int" name="INIMIX">     1</i>
     <i type="int" name="MIXPRE">     1</i>
     <i type="int" name="MREMOVE">     5</i>
    </separator>
   </separator>
   <separator name="electronic dipolcorrection" >
    <i type="logical" name="LDIPOL"> F  </i>
    <i type="logical" name="LMONO"> F  </i>
    <i type="int" name="IDIPOL">     0</i>
    <i name="EPSILON">      1.00000000</i>
    <v name="DIPOL">   -100.00000000   -100.00000000   -100.00000000</v>
    <i name="EFIELD">      0.00000000</i>
   </separator>
  </separator>
  <separator name="grids" >
   <i type="int" name="NGX">    54</i>
   <i type="int" name="NGY">    28</i>
   <i type="int" name="NGZ">    70</i>
   <i type="int" name="NGXF">   108</i>
   <i type="int" name="NGYF">    56</i>
   <i type="int" name="NGZF">   140</i>
   <i type="logical" name="ADDGRID"> T  </i>
  </separator>
  <separator name="ionic" >
   <i type="int" name="NSW">     0</i>
   <i type="int" name="IBRION">    -1</i>
   <i type="int" name="MDALGO">     0</i>
   <i type="int" name="ISIF">     2</i>
   <i name="PSTRESS">      0.00000000</i>
   <i name="EDIFFG">      0.00000010</i>
   <i type="int" name="NFREE">     0</i>
   <i name="POTIM">      0.50000000</i>
   <i name="SMASS">     -3.00000000</i>
   <i name="SCALEE">      1.00000000</i>
  </separator>
  <separator name="ionic md" >
   <i name="TEBEG">      0.00010000</i>
   <i name="TEEND">      0.00010000</i>
   <i type="int" name="NBLOCK">     1</i>
   <i type="int" name="KBLOCK">     1</i>
   <i type="int" name="NPACO">   256</i>
   <i name="APACO">     16.00000000</i>
  </separator>
  <separator name="symmetry" >
   <i type="int" name="ISYM">     2</i>
   <i name="SYMPREC">      0.00001000</i>
  </separator>
  <separator name="dos" >
   <i type="int" name="LORBIT">    11</i>
   <v name="RWIGS">     -1.00000000     -1.00000000     -1.00000000</v>
   <i type="int" name="NEDOS">  5000</i>
   <i name="EMIN">     10.00000000</i>
   <i name="EMAX">    -10.00000000</i>
   <i name="EFERMI">      0.00000000</i>
  </separator>
  <separator name="writing" >
   <i type="int" name="NWRITE">     2</i>
   <i type="logical" name="LWAVE"> F  </i>
   <i type="logical" name="LDOWNSAMPLE"> F  </i>
   <i type="logical" name="LCHARG"> F  </i>
   <i type="logical" name="LPARD"> F  </i>
   <i type="logical" name="LVTOT"> F  </i>
   <i type="logical" name="LVHAR"> F  </i>
   <i type="logical" name="LELF"> F  </i>
   <i type="logical" name="LOPTICS"> F  </i>
   <v name="STM">      0.00000000      0.00000000      0.00000000      0.00000000      0.00000000      0.00000000      0.00000000</v>
  </separator>
  <separator name="performance" >
   <i type="int" name="NPAR">     2</i>
   <i type="int" name="NSIM">     4</i>
   <i type="int" name="NBLK">    -1</i>
   <i type="logical" name="LPLANE"> T  </i>
   <i type="logical" name="LSCALAPACK"> F  </i>
   <i type="logical" name="LSCAAWARE"> F  </i>
   <i type="logical" name="LSCALU"> F  </i>
   <i type="logical" name="LASYNC"> F  </i>
   <i type="logical" name="LORBITALREAL"> F  </i>
  </separator>
  <separator name="miscellaneous" >
   <i type="int" name="IDIOT">     3</i>
   <i type="int" name="ISPECIAL">     0</i>
   <i type="logical" name="LMUSIC"> F  </i>
   <v name="POMASS">    208.98000000     78.96000000    126.90400000</v>
   <v name="DARWINR">      0.00000000      0.00000000      0.00000000</v>
   <v name="DARWINV">      1.00000000      1.00000000      1.00000000</v>
   <i type="logical" name="LCORR"> T  </i>
  </separator>
  <i type="logical" name="GGA_COMPAT"> T  </i>
  <i type="logical" name="LBERRY"> F  </i>
  <i type="int" name="ICORELEVEL">     0</i>
  <i type="logical" name="LDAU"> F  </i>
  <i type="int" name="I_CONSTRAINED_M">     0</i>
  <separator name="electronic exchange-correlation" >
   <i type="string" name="GGA">MK</i>
   <i type="int" name="VOSKOWN">     0</i>
   <i type="logical" name="LHFCALC"> F  </i>
   <i type="string" name="PRECFOCK"></i>
   <i type="logical" name="LSYMGRAD"> F  </i>
   <i type="logical" name="LHFONE"> F  </i>
   <i type="logical" name="LRHFCALC"> F  </i>
   <i type="logical" name="LTHOMAS"> F  </i>
   <i type="logical" name="LMODELHF"> F  </i>
   <i name="ENCUT4O">     -1.00000000</i>
   <i type="int" name="EXXOEP">     0</i>
   <i type="int" name="FOURORBIT">     0</i>
   <i name="AEXX">      0.00000000</i>
   <i name="HFALPHA">      0.00000000</i>
   <i name="MCALPHA">      0.00000000</i>
   <i name="ALDAX">      1.00000000</i>
   <i name="AGGAX">      1.00000000</i>
   <i name="ALDAC">      1.00000000</i>
   <i name="AGGAC">      0.00000000</i>
   <i type="int" name="NKREDX">     1</i>
   <i type="int" name="NKREDY">     1</i>
   <i type="int" name="NKREDZ">     1</i>
   <i type="logical" name="SHIFTRED"> F  </i>
   <i type="logical" name="ODDONLY"> F  </i>
   <i type="logical" name="EVENONLY"> F  </i>
   <i type="int" name="LMAXFOCK">     0</i>
   <i type="int" name="NMAXFOCKAE">     0</i>
   <i type="logical" name="LFOCKAEDFT"> F  </i>
   <i name="HFSCREEN">      0.00000000</i>
   <i name="HFSCREENC">      0.00000000</i>
   <i type="int" name="NBANDSGWLOW">     0</i>
  </separator>
  <separator name="vdW DFT" >
   <i type="logical" name="LUSE_VDW"> T  </i>
   <i name="Zab_VDW">     -0.84910000</i>
   <i name="PARAM1">      0.12340000</i>
   <i name="PARAM2">      1.00000000</i>
   <i name="PARAM3">      0.00000000</i>
  </separator>
  <separator name="model GW" >
   <i type="int" name="MODEL_GW">     0</i>
   <i name="MODEL_EPS0">     19.43573977</i>
   <i name="MODEL_ALPHA">      1.00000000</i>
  </separator>
  <separator name="linear response parameters" >
   <i type="logical" name="LEPSILON"> F  </i>
   <i type="logical" name="LRPA"> F  </i>
   <i type="logical" name="LNABLA"> F  </i>
   <i type="logical" name="LVEL"> F  </i>
   <i type="int" name="KINTER">     0</i>
   <i name="CSHIFT">      0.10000000</i>
   <i name="OMEGAMAX">     -1.00000000</i>
   <i name="DEG_THRESHOLD">      0.00200000</i>
   <i name="RTIME">     -0.10000000</i>
   <i name="WPLASMAI">      0.00000000</i>
   <v name="DFIELD">      0.00000000      0.00000000      0.00000000</v>
   <v name="WPLASMA">      0.00000000      0.00000000      0.00000000      0.00000000      0.00000000      0.00000000      0.00000000      0.00000000      0.00000000</v>
  </separator>
  <separator name="orbital magnetization" >
   <i type="logical" name="NUCIND"> F  </i>
   <v name="MAGPOS">      0.00000000      0.00000000      0.00000000</v>
   <i type="logical" name="LNICSALL"> T  </i>
   <i type="logical" name="ORBITALMAG"> F  </i>
   <i type="logical" name="LMAGBLOCH"> F  </i>
   <i type="logical" name="LCHIMAG"> F  </i>
   <i type="logical" name="LGAUGE"> T  </i>
   <i type="int" name="MAGATOM">     0</i>
   <v name="MAGDIPOL">      0.00000000      0.00000000      0.00000000</v>
   <v name="AVECCONST">      0.00000000      0.00000000      0.00000000</v>
  </separator>
  <separator name="response functions" >
   <i type="logical" name="LADDER"> F  </i>
   <i type="logical" name="LRPAFORCE"> F  </i>
   <i type="logical" name="LFXC"> F  </i>
   <i type="logical" name="LHARTREE"> T  </i>
   <i type="int" name="IBSE">     0</i>
   <v type="int" name="KPOINT">    -1     0     0     0</v>
   <i type="logical" name="LTCTE"> F  </i>
   <i type="logical" name="LTETE"> F  </i>
   <i type="logical" name="LTRIPLET"> F  </i>
   <i type="logical" name="LFXCEPS"> F  </i>
   <i type="logical" name="LFXHEG"> F  </i>
   <i type="int" name="NATURALO">     2</i>
   <i type="logical" name="L2ORDER"> F  </i>
   <i type="logical" name="LMP2LT"> F  </i>
   <i type="logical" name="LUSEW"> F  </i>
   <i name="ENCUTGW">     -2.00000000</i>
   <i name="ENCUTGWSOFT">     -2.00000000</i>
   <i name="ENCUTLF">     -1.00000000</i>
   <i type="int" name="LMAXMP2">    -1</i>
   <i name="SCISSOR">      0.00000000</i>
   <i type="int" name="NOMEGA">     0</i>
   <i type="int" name="NOMEGAR">     0</i>
   <i type="int" name="NBANDSGW">    -1</i>
   <i type="int" name="NBANDSO">    -1</i>
   <i type="int" name="NBANDSV">    -1</i>
   <i type="int" name="NELM">   100</i>
   <i type="int" name="NELMHF">     1</i>
   <i type="int" name="DIM">     3</i>
   <i type="int" name="ANTIRES">     0</i>
   <i name="OMEGAMAX">    -30.00000000</i>
   <i name="OMEGAMIN">    -30.00000000</i>
   <i name="OMEGATL">   -200.00000000</i>
   <i type="int" name="OMEGAGRID">   140</i>
   <i name="CSHIFT">     -0.10000000</i>
   <i type="logical" name="SELFENERGY"> F  </i>
   <i type="logical" name="LSPECTRAL"> F  </i>
   <i type="logical" name="LSPECTRALGW"> F  </i>
   <i type="logical" name="LSINGLES"> F  </i>
   <i type="logical" name="LFERMIGW"> F  </i>
   <i type="logical" name="ODDONLYGW"> F  </i>
   <i type="logical" name="EVENONLYGW"> F  </i>
   <i type="int" name="NKREDLFX">     1</i>
   <i type="int" name="NKREDLFY">     1</i>
   <i type="int" name="NKREDLFZ">     1</i>
   <i type="int" name="MAXMEM">  2800</i>
   <i type="int" name="TELESCOPE">     0</i>
   <i type="int" name="TAUPAR">     1</i>
   <i type="int" name="OMEGAPAR">    -1</i>
   <i name="LAMBDA">      1.00000000</i>
  </separator>
  <separator name="External order field" >
   <i name="OFIELD_KAPPA">      0.00000000</i>
   <v name="OFIELD_K">      0.00000000      0.00000000      0.00000000</v>
   <i name="OFIELD_Q6_NEAR">      0.00000000</i>
   <i name="OFIELD_Q6_FAR">      0.00000000</i>
   <i name="OFIELD_A">      0.00000000</i>
  </separator>
 </parameters>
 <atominfo>
  <atoms>      12 </atoms>
  <types>       3 </types>
  <array name="atoms" >
   <dimension dim="1">ion</dimension>
   <field type="string">element</field>
   <field type="int">atomtype</field>
   <set>
    <rc><c>Bi</c><c>   1</c></rc>
    <rc><c>Bi</c><c>   1</c></rc>
    <rc><c>Bi</c><c>   1</c></rc>
    <rc><c>Bi</c><c>   1</c></rc>
    <rc><c>Se</c><c>   2</c></rc>
    <rc><c>Se</c><c>   2</c></rc>
    <rc><c>Se</c><c>   2</c></rc>
    <rc><c>Se</c><c>   2</c></rc>
    <rc><c>I </c><c>   3</c></rc>
    <rc><c>I </c><c>   3</c></rc>
    <rc><c>I </c><c>   3</c></rc>
    <rc><c>I </c><c>   3</c></rc>
   </set>
  </array>
  <array name="atomtypes" >
   <dimension dim="1">type</dimension>
   <field type="int">atomspertype</field>
   <field type="string">element</field>
   <field>mass</field>
   <field>valence</field>
   <field type="string">pseudopotential</field>
   <set>
    <rc><c>   4</c><c>Bi</c><c>    208.98000000</c><c>     15.00000000</c><c>  PAW_PBE Bi_d 06Sep2000                </c></rc>
    <rc><c>   4</c><c>Se</c><c>     78.96000000</c><c>      6.00000000</c><c>  PAW_PBE Se 06Sep2000                  </c></rc>
    <rc><c>   4</c><c>I </c><c>    126.90400000</c><c>      7.00000000</c><c>  PAW_PBE I 08Apr2002                   </c></rc>
   </set>
  </array>
 </atominfo>
 <structure name="initialpos" >
  <crystal>
   <varray name="basis" >
    <v>       8.70460033       0.00000000       0.00000000 </v>
    <v>       0.00000000       4.21652794       0.00000000 </v>
    <v>       0.00000000       0.00000000      10.59076309 </v>
   </varray>
   <i name="volume">    388.71479536 </i>
   <varray name="rec_basis" >
    <v>       0.11488178       0.00000000       0.00000000 </v>
    <v>       0.00000000       0.23716195       0.00000000 </v>
    <v>       0.00000000       0.00000000       0.09442190 </v>
   </varray>
  </crystal>
  <varray name="positions" >
   <v>       0.86826228       0.24827936       0.62833398 </v>
   <v>       0.63718199       0.75292592       0.12950710 </v>
   <v>       0.13262254       0.75121353       0.36882659 </v>
   <v>       0.36985528       0.25524342       0.87488831 </v>
   <v>       0.17133448       0.25052543       0.55293220 </v>
   <v>       0.32933127       0.74978042       0.05284136 </v>
   <v>       0.82807186       0.75130445       0.44713544 </v>
   <v>       0.67097387       0.24966666       0.94876936 </v>
   <v>       0.01654346       0.74586739       0.82721720 </v>
   <v>       0.48500027       0.24999762       0.32869978 </v>
   <v>       0.98543993       0.24959164       0.16728596 </v>
   <v>       0.51461782       0.75000390       0.67160057 </v>
  </varray>
 </structure>
 <calculation>
  <scstep>
   <time name="dav">    3.28    3.47</time>
   <time name="total">   13.26   13.45</time>
   <energy>
    <i name="alphaZ">    220.57723892 </i>
    <i name="ewald">  -7048.44633770 </i>
    <i name="hartreedc">  -2991.07659024 </i>
    <i name="XCdc">    138.67093790 </i>
    <i name="pawpsdc">   8641.63527677 </i>
    <i name="pawaedc">  -8355.24740807 </i>
    <i name="eentropy">     -0.00383218 </i>
    <i name="bandstr">    243.70277775 </i>
    <i name="atom">  10158.27912053 </i>
    <i name="e_fr_energy">   1008.09118368 </i>
    <i name="e_wo_entrp">   1008.09501586 </i>
    <i name="e_0_energy">   1008.09309977 </i>
   </energy>
  </scstep>
  <scstep>
   <time name="dav">    3.45    3.67</time>
   <time name="total">    3.47    3.68</time>
   <energy>
    <i name="e_fr_energy">    107.33215581 </i>
    <i name="e_wo_entrp">    107.33518841 </i>
    <i name="e_0_energy">    107.33367211 </i>
   </energy>
  </scstep>
  <scstep>
   <time name="dav">    3.73    3.92</time>
   <time name="total">    3.74    3.93</time>
   <energy>
    <i name="e_fr_energy">     -9.86641231 </i>
    <i name="e_wo_entrp">     -9.86641231 </i>
    <i name="e_0_energy">     -9.86641231 </i>
   </energy>
  </scstep>
  <scstep>
   <time name="dav">    3.50    3.72</time>
   <time name="total">    3.51    3.73</time>
   <energy>
    <i name="e_fr_energy">    -15.46322688 </i>
    <i name="e_wo_entrp">    -15.46322688 </i>
    <i name="e_0_energy">    -15.46322688 </i>
   </energy>
  </scstep>
  <scstep>
   <time name="dav">    3.74    3.96</time>
   <time name="total">    3.75    3.97</time>
   <energy>
    <i name="e_fr_energy">    -15.71574490 </i>
    <i name="e_wo_entrp">    -15.71574490 </i>
    <i name="e_0_energy">    -15.71574490 </i>
   </energy>
  </scstep>
  <scstep>
   <time name="dav">    3.95    4.15</time>
   <time name="total">    5.04    5.24</time>
   <energy>
    <i name="e_fr_energy">    -15.72318411 </i>
    <i name="e_wo_entrp">    -15.72318411 </i>
    <i name="e_0_energy">    -15.72318411 </i>
   </energy>
  </scstep>
  <scstep>
   <time name="dav">    3.63    3.85</time>
   <time name="total">   14.30   14.52</time>
   <energy>
    <i name="e_fr_energy">    -14.05540317 </i>
    <i name="e_wo_entrp">    -14.05540317 </i>
    <i name="e_0_energy">    -14.05540317 </i>
   </energy>
  </scstep>
  <scstep>
   <time name="dav">    3.50    3.72</time>
   <time name="total">   14.20   14.42</time>
   <energy>
    <i name="e_fr_energy">    -14.09389042 </i>
    <i name="e_wo_entrp">    -14.09389042 </i>
    <i name="e_0_energy">    -14.09389042 </i>
   </energy>
  </scstep>
  <scstep>
   <time name="dav">    3.51    3.69</time>
   <time name="total">   14.25   14.42</time>
   <energy>
    <i name="e_fr_energy">    -14.10112858 </i>
    <i name="e_wo_entrp">    -14.10112858 </i>
    <i name="e_0_energy">    -14.10112858 </i>
   </energy>
  </scstep>
  <scstep>
   <time name="dav">    3.24    3.40</time>
   <time name="total">   13.95   14.12</time>
   <energy>
    <i name="e_fr_energy">    -14.10044513 </i>
    <i name="e_wo_entrp">    -14.10044513 </i>
    <i name="e_0_energy">    -14.10044513 </i>
   </energy>
  </scstep>
  <scstep>
   <time name="dav">    3.61    3.83</time>
   <time name="total">   14.32   14.53</time>
   <energy>
    <i name="e_fr_energy">    -14.10076550 </i>
    <i name="e_wo_entrp">    -14.10076550 </i>
    <i name="e_0_energy">    -14.10076550 </i>
   </energy>
  </scstep>
  <scstep>
   <time name="dav">    3.23    3.45</time>
   <time name="total">   13.93   14.14</time>
   <energy>
    <i name="e_fr_energy">    -14.10111780 </i>
    <i name="e_wo_entrp">    -14.10111780 </i>
    <i name="e_0_energy">    -14.10111780 </i>
   </energy>
  </scstep>
  <scstep>
   <time name="dav">    3.82    3.98</time>
   <time name="total">   14.50   14.66</time>
   <energy>
    <i name="e_fr_energy">    -14.10110161 </i>
    <i name="e_wo_entrp">    -14.10110161 </i>
    <i name="e_0_energy">    -14.10110161 </i>
   </energy>
  </scstep>
  <scstep>
   <time name="dav">    3.29    3.48</time>
   <time name="total">   14.02   14.22</time>
   <energy>
    <i name="e_fr_energy">    -14.10111296 </i>
    <i name="e_wo_entrp">    -14.10111296 </i>
    <i name="e_0_energy">    -14.10111296 </i>
   </energy>
  </scstep>
  <scstep>
   <time name="dav">    3.42    3.66</time>
   <time name="total">   14.11   14.34</time>
   <energy>
    <i name="e_fr_energy">    -14.10111192 </i>
    <i name="e_wo_entrp">    -14.10111192 </i>
    <i name="e_0_energy">    -14.10111192 </i>
   </energy>
  </scstep>
  <scstep>
   <time name="dav">    3.41    3.64</time>
   <time name="total">   14.09   14.32</time>
   <energy>
    <i name="e_fr_energy">    -14.10111210 </i>
    <i name="e_wo_entrp">    -14.10111210 </i>
    <i name="e_0_energy">    -14.10111210 </i>
   </energy>
  </scstep>
  <scstep>
   <time name="dav">    3.54    3.72</time>
   <time name="total">   14.25   14.43</time>
   <energy>
    <i name="e_fr_energy">    -14.10111219 </i>
    <i name="e_wo_entrp">    -14.10111219 </i>
    <i name="e_0_energy">    -14.10111219 </i>
   </energy>
  </scstep>
  <scstep>
   <time name="dav">    2.44    2.63</time>
   <time name="total">   13.13   13.33</time>
   <energy>
    <i name="e_fr_energy">    -14.10111213 </i>
    <i name="e_wo_entrp">    -14.10111213 </i>
    <i name="e_0_energy">    -14.10111213 </i>
   </energy>
  </scstep>
  <scstep>
   <time name="dav">    2.17    2.35</time>
   <time name="total">   12.88   13.05</time>
   <energy>
    <i name="e_fr_energy">    -14.10111211 </i>
    <i name="e_wo_entrp">    -14.10111211 </i>
    <i name="e_0_energy">    -14.10111211 </i>
   </energy>
  </scstep>
  <scstep>
   <time name="dav">    2.17    2.38</time>
   <time name="total">   11.83   12.04</time>
   <energy>
    <i name="alphaZ">    220.57723892 </i>
    <i name="ewald">  -7048.44633770 </i>
    <i name="hartreedc">  -2967.86963013 </i>
    <i name="XCdc">    139.74799391 </i>
    <i name="pawpsdc">   9490.97561941 </i>
    <i name="pawaedc">  -9198.39242958 </i>
    <i name="eentropy">     -0.00000000 </i>
    <i name="bandstr">   -808.97268747 </i>
    <i name="atom">  10158.27912053 </i>
    <i name="e_fr_energy">    -14.10111211 </i>
    <i name="e_wo_entrp">    -14.10111211 </i>
    <i name="e_0_energy">    -14.10111211 </i>
   </energy>
  </scstep>
  <structure>
   <crystal>
    <varray name="basis" >
     <v>       8.70460033       0.00000000       0.00000000 </v>
     <v>       0.00000000       4.21652794       0.00000000 </v>
     <v>       0.00000000       0.00000000      10.59076309 </v>
    </varray>
    <i name="volume">    388.71479536 </i>
    <varray name="rec_basis" >
     <v>       0.11488178       0.00000000       0.00000000 </v>
     <v>       0.00000000       0.23716195       0.00000000 </v>
     <v>       0.00000000       0.00000000       0.09442190 </v>
    </varray>
   </crystal>
   <varray name="positions" >
    <v>       0.86826228       0.24827936       0.62833398 </v>
    <v>       0.63718199       0.75292592       0.12950710 </v>
    <v>       0.13262254       0.75121353       0.36882659 </v>
    <v>       0.36985528       0.25524342       0.87488831 </v>
    <v>       0.17133448       0.25052543       0.55293220 </v>
    <v>       0.32933127       0.74978042       0.05284136 </v>
    <v>       0.82807186       0.75130445       0.44713544 </v>
    <v>       0.67097387       0.24966666       0.94876936 </v>
    <v>       0.01654346       0.74586739       0.82721720 </v>
    <v>       0.48500027       0.24999762       0.32869978 </v>
    <v>       0.98543993       0.24959164       0.16728596 </v>
    <v>       0.51461782       0.75000390       0.67160057 </v>
   </varray>
  </structure>
  <varray name="forces" >
   <v>      -0.02986050       0.03184696      -0.02742385 </v>
   <v>      -0.21614039      -0.03052072       0.04010828 </v>
   <v>      -0.06779957      -0.00136608       0.21118367 </v>
   <v>      -0.12526898      -0.06121468      -0.19334168 </v>
   <v>      -0.01008515      -0.00727747      -0.17593846 </v>
   <v>       0.17758191       0.06098638       0.18356145 </v>
   <v>       0.10349584      -0.05686594      -0.05291284 </v>
   <v>       0.14078847       0.03546269      -0.04702315 </v>
   <v>      -0.01507090       0.03622674       0.01793065 </v>
   <v>       0.01593194      -0.00470445      -0.02238384 </v>
   <v>       0.00372433       0.00104248       0.04587733 </v>
   <v>       0.02270300      -0.00361591       0.02036245 </v>
  </varray>
  <varray name="stress" >
   <v>      -1.28576579       0.18470223       0.30020341 </v>
   <v>       0.18470229      -0.17187956       0.79366079 </v>
   <v>       0.30020343       0.79366093      -0.14663973 </v>
  </varray>
  <energy>
   <i name="e_fr_energy">    -14.10111211 </i>
   <i name="e_wo_entrp">    -14.10111211 </i>
   <i name="e_0_energy">     -0.00000000 </i>
  </energy>
  <time name="totalsc">  255.17  259.86</time>
  <eigenvalues>
   <array>
    <dimension dim="1">band</dimension>
    <dimension dim="2">kpoint</dimension>
    <dimension dim="3">spin</dimension>
    <field>eigene</field>
    <field>occ</field>
    <set>
     <set comment="spin 1">
      <set comment="kpoint 1">
       <r>  -18.5749    1.0000 </r>
       <r>  -18.5678    1.0000 </r>
       <r>  -18.5522    1.0000 </r>
       <r>  -18.5499    1.0000 </r>
       <r>  -18.5417    1.0000 </r>
       <r>  -18.5340    1.0000 </r>
       <r>  -18.5310    1.0000 </r>
       <r>  -18.5273    1.0000 </r>
       <r>  -18.5201    1.0000 </r>
       <r>  -18.5154    1.0000 </r>
       <r>  -18.5054    1.0000 </r>
       <r>  -18.5048    1.0000 </r>
       <r>  -18.5042    1.0000 </r>
       <r>  -18.4986    1.0000 </r>
       <r>  -18.4944    1.0000 </r>
       <r>  -18.4857    1.0000 </r>
       <r>  -18.4758    1.0000 </r>
       <r>  -18.4714    1.0000 </r>
       <r>  -18.4626    1.0000 </r>
       <r>  -18.4581    1.0000 </r>
       <r>   -9.6265    1.0000 </r>
       <r>   -9.3156    1.0000 </r>
       <r>   -8.1129    1.0000 </r>
       <r>   -7.9817    1.0000 </r>
       <r>   -7.8341    1.0000 </r>
       <r>   -7.7640    1.0000 </r>
       <r>   -7.6777    1.0000 </r>
       <r>   -7.5095    1.0000 </r>
       <r>   -6.0012    1.0000 </r>
       <r>   -5.6682    1.0000 </r>
       <r>   -4.9256    1.0000 </r>
       <r>   -4.4362    1.0000 </r>
       <r>    0.1452    1.0000 </r>
       <r>    0.5571    1.0000 </r>
       <r>    1.1748    1.0000 </r>
       <r>    1.2056    1.0000 </r>
       <r>    1.2354    1.0000 </r>
       <r>    1.4716    1.0000 </r>
       <r>    1.6037    1.0000 </r>
       <r>    1.6917    1.0000 </r>
       <r>    2.5139    1.0000 </r>
       <r>    2.5963    1.0000 </r>
       <r>    2.6137    1.0000 </r>
       <r>    2.6502    1.0000 </r>
       <r>    2.7242    1.0000 </r>
       <r>    2.7665    1.0000 </r>
       <r>    3.0830    1.0000 </r>
       <r>    3.1182    1.0000 </r>
       <r>    3.1223    1.0000 </r>
       <r>    3.1523    1.0000 </r>
       <r>    3.3451    1.0000 </r>
       <r>    3.3605    1.0000 </r>
       <r>    3.3752    1.0000 </r>
       <r>    3.5777    1.0000 </r>
       <r>    3.5906    1.0000 </r>
       <r>    3.7480    1.0000 </r>
       <r>    5.8199    0.0000 </r>
       <r>    5.8362    0.0000 </r>
       <r>    6.3142    0.0000 </r>
       <r>    6.4960    0.0000 </r>
       <r>    6.6700    0.0000 </r>
       <r>    6.8451    0.0000 </r>
       <r>    6.9359    0.0000 </r>
       <r>    6.9514    0.0000 </r>
       <r>    6.9842    0.0000 </r>
       <r>    7.7677    0.0000 </r>
       <r>    7.9126    0.0000 </r>
       <r>    8.0868    0.0000 </r>
      </set>
      <set comment="kpoint 2">
       <r>  -18.5748    1.0000 </r>
       <r>  -18.5677    1.0000 </r>
       <r>  -18.5522    1.0000 </r>
       <r>  -18.5499    1.0000 </r>
       <r>  -18.5416    1.0000 </r>
       <r>  -18.5341    1.0000 </r>
       <r>  -18.5309    1.0000 </r>
       <r>  -18.5273    1.0000 </r>
       <r>  -18.5201    1.0000 </r>
       <r>  -18.5154    1.0000 </r>
       <r>  -18.5054    1.0000 </r>
       <r>  -18.5048    1.0000 </r>
       <r>  -18.5041    1.0000 </r>
       <r>  -18.4986    1.0000 </r>
       <r>  -18.4943    1.0000 </r>
       <r>  -18.4856    1.0000 </r>
       <r>  -18.4757    1.0000 </r>
       <r>  -18.4714    1.0000 </r>
       <r>  -18.4626    1.0000 </r>
       <r>  -18.4580    1.0000 </r>
       <r>   -9.5816    1.0000 </r>
       <r>   -9.3488    1.0000 </r>
       <r>   -8.1282    1.0000 </r>
       <r>   -8.0662    1.0000 </r>
       <r>   -7.9375    1.0000 </r>
       <r>   -7.7556    1.0000 </r>
       <r>   -7.5710    1.0000 </r>
       <r>   -7.4307    1.0000 </r>
       <r>   -5.9632    1.0000 </r>
       <r>   -5.7211    1.0000 </r>
       <r>   -4.8230    1.0000 </r>
       <r>   -4.4797    1.0000 </r>
       <r>    0.0979    1.0000 </r>
       <r>    0.2685    1.0000 </r>
       <r>    0.9193    1.0000 </r>
       <r>    1.1778    1.0000 </r>
       <r>    1.2951    1.0000 </r>
       <r>    1.6359    1.0000 </r>
       <r>    1.7882    1.0000 </r>
       <r>    1.9201    1.0000 </r>
       <r>    2.2415    1.0000 </r>
       <r>    2.2735    1.0000 </r>
       <r>    2.6118    1.0000 </r>
       <r>    2.6466    1.0000 </r>
       <r>    2.6888    1.0000 </r>
       <r>    2.9218    1.0000 </r>
       <r>    3.0332    1.0000 </r>
       <r>    3.0710    1.0000 </r>
       <r>    3.1814    1.0000 </r>
       <r>    3.2248    1.0000 </r>
       <r>    3.3962    1.0000 </r>
       <r>    3.5462    1.0000 </r>
       <r>    3.5704    1.0000 </r>
       <r>    3.6177    1.0000 </r>
       <r>    3.7951    1.0000 </r>
       <r>    3.9168    1.0000 </r>
       <r>    5.7878    0.0000 </r>
       <r>    5.9160    0.0000 </r>
       <r>    6.3569    0.0000 </r>
       <r>    6.3945    0.0000 </r>
       <r>    6.5278    0.0000 </r>
       <r>    6.7105    0.0000 </r>
       <r>    6.8118    0.0000 </r>
       <r>    6.9343    0.0000 </r>
       <r>    7.1637    0.0000 </r>
       <r>    7.6026    0.0000 </r>
       <r>    7.7073    0.0000 </r>
       <r>    7.7269    0.0000 </r>
      </set>
      <set comment="kpoint 3">
       <r>  -18.5748    1.0000 </r>
       <r>  -18.5677    1.0000 </r>
       <r>  -18.5522    1.0000 </r>
       <r>  -18.5499    1.0000 </r>
       <r>  -18.5415    1.0000 </r>
       <r>  -18.5341    1.0000 </r>
       <r>  -18.5309    1.0000 </r>
       <r>  -18.5272    1.0000 </r>
       <r>  -18.5201    1.0000 </r>
       <r>  -18.5153    1.0000 </r>
       <r>  -18.5054    1.0000 </r>
       <r>  -18.5047    1.0000 </r>
       <r>  -18.5040    1.0000 </r>
       <r>  -18.4985    1.0000 </r>
       <r>  -18.4944    1.0000 </r>
       <r>  -18.4857    1.0000 </r>
       <r>  -18.4757    1.0000 </r>
       <r>  -18.4713    1.0000 </r>
       <r>  -18.4626    1.0000 </r>
       <r>  -18.4579    1.0000 </r>
       <r>   -9.5032    1.0000 </r>
       <r>   -9.4171    1.0000 </r>
       <r>   -8.1760    1.0000 </r>
       <r>   -8.0982    1.0000 </r>
       <r>   -7.9189    1.0000 </r>
       <r>   -7.8666    1.0000 </r>
       <r>   -7.4492    1.0000 </r>
       <r>   -7.3881    1.0000 </r>
       <r>   -5.8555    1.0000 </r>
       <r>   -5.8413    1.0000 </r>
       <r>   -4.6389    1.0000 </r>
       <r>   -4.6061    1.0000 </r>
       <r>    0.0104    1.0000 </r>
       <r>    0.0891    1.0000 </r>
       <r>    0.9640    1.0000 </r>
       <r>    0.9887    1.0000 </r>
       <r>    1.4209    1.0000 </r>
       <r>    1.5133    1.0000 </r>
       <r>    1.8253    1.0000 </r>
       <r>    1.8584    1.0000 </r>
       <r>    2.3714    1.0000 </r>
       <r>    2.4036    1.0000 </r>
       <r>    2.5739    1.0000 </r>
       <r>    2.6527    1.0000 </r>
       <r>    2.7963    1.0000 </r>
       <r>    2.8312    1.0000 </r>
       <r>    2.9772    1.0000 </r>
       <r>    2.9952    1.0000 </r>
       <r>    3.0911    1.0000 </r>
       <r>    3.1311    1.0000 </r>
       <r>    3.5427    1.0000 </r>
       <r>    3.6143    1.0000 </r>
       <r>    3.8059    1.0000 </r>
       <r>    3.8108    1.0000 </r>
       <r>    3.9854    1.0000 </r>
       <r>    4.0059    1.0000 </r>
       <r>    5.9959    0.0000 </r>
       <r>    6.0225    0.0000 </r>
       <r>    6.2382    0.0000 </r>
       <r>    6.2629    0.0000 </r>
       <r>    6.5321    0.0000 </r>
       <r>    6.5705    0.0000 </r>
       <r>    6.6362    0.0000 </r>
       <r>    6.6630    0.0000 </r>
       <r>    7.4114    0.0000 </r>
       <r>    7.4626    0.0000 </r>
       <r>    7.4766    0.0000 </r>
       <r>    7.5357    0.0000 </r>
      </set>
      <set comment="kpoint 4">
       <r>  -18.5729    1.0000 </r>
       <r>  -18.5692    1.0000 </r>
       <r>  -18.5518    1.0000 </r>
       <r>  -18.5476    1.0000 </r>
       <r>  -18.5433    1.0000 </r>
       <r>  -18.5337    1.0000 </r>
       <r>  -18.5317    1.0000 </r>
       <r>  -18.5271    1.0000 </r>
       <r>  -18.5181    1.0000 </r>
       <r>  -18.5164    1.0000 </r>
       <r>  -18.5056    1.0000 </r>
       <r>  -18.5047    1.0000 </r>
       <r>  -18.5026    1.0000 </r>
       <r>  -18.4999    1.0000 </r>
       <r>  -18.4940    1.0000 </r>
       <r>  -18.4854    1.0000 </r>
       <r>  -18.4750    1.0000 </r>
       <r>  -18.4722    1.0000 </r>
       <r>  -18.4621    1.0000 </r>
       <r>  -18.4588    1.0000 </r>
       <r>   -9.5279    1.0000 </r>
       <r>   -9.2223    1.0000 </r>
       <r>   -8.0394    1.0000 </r>
       <r>   -7.9284    1.0000 </r>
       <r>   -7.7968    1.0000 </r>
       <r>   -7.7203    1.0000 </r>
       <r>   -7.6303    1.0000 </r>
       <r>   -7.4805    1.0000 </r>
       <r>   -6.0646    1.0000 </r>
       <r>   -5.7835    1.0000 </r>
       <r>   -4.9843    1.0000 </r>
       <r>   -4.5457    1.0000 </r>
       <r>    0.2396    1.0000 </r>
       <r>    0.4612    1.0000 </r>
       <r>    0.8963    1.0000 </r>
       <r>    0.9964    1.0000 </r>
       <r>    1.0361    1.0000 </r>
       <r>    1.3488    1.0000 </r>
       <r>    1.5628    1.0000 </r>
       <r>    1.6937    1.0000 </r>
       <r>    1.8509    1.0000 </r>
       <r>    2.1664    1.0000 </r>
       <r>    2.3025    1.0000 </r>
       <r>    2.5791    1.0000 </r>
       <r>    2.6201    1.0000 </r>
       <r>    2.7880    1.0000 </r>
       <r>    2.8205    1.0000 </r>
       <r>    2.8397    1.0000 </r>
       <r>    2.9010    1.0000 </r>
       <r>    3.4542    1.0000 </r>
       <r>    3.5000    1.0000 </r>
       <r>    3.6082    1.0000 </r>
       <r>    3.6603    1.0000 </r>
       <r>    3.7238    1.0000 </r>
       <r>    3.7603    1.0000 </r>
       <r>    3.8246    1.0000 </r>
       <r>    6.0397    0.0000 </r>
       <r>    6.0742    0.0000 </r>
       <r>    6.3056    0.0000 </r>
       <r>    6.5508    0.0000 </r>
       <r>    6.5711    0.0000 </r>
       <r>    6.5966    0.0000 </r>
       <r>    6.7262    0.0000 </r>
       <r>    7.0897    0.0000 </r>
       <r>    7.5644    0.0000 </r>
       <r>    7.7782    0.0000 </r>
       <r>    7.8709    0.0000 </r>
       <r>    8.0275    0.0000 </r>
      </set>
      <set comment="kpoint 5">
       <r>  -18.5729    1.0000 </r>
       <r>  -18.5692    1.0000 </r>
       <r>  -18.5518    1.0000 </r>
       <r>  -18.5476    1.0000 </r>
       <r>  -18.5433    1.0000 </r>
       <r>  -18.5338    1.0000 </r>
       <r>  -18.5317    1.0000 </r>
       <r>  -18.5271    1.0000 </r>
       <r>  -18.5181    1.0000 </r>
       <r>  -18.5163    1.0000 </r>
       <r>  -18.5056    1.0000 </r>
       <r>  -18.5047    1.0000 </r>
       <r>  -18.5026    1.0000 </r>
       <r>  -18.4999    1.0000 </r>
       <r>  -18.4939    1.0000 </r>
       <r>  -18.4854    1.0000 </r>
       <r>  -18.4750    1.0000 </r>
       <r>  -18.4721    1.0000 </r>
       <r>  -18.4621    1.0000 </r>
       <r>  -18.4588    1.0000 </r>
       <r>   -9.4837    1.0000 </r>
       <r>   -9.2549    1.0000 </r>
       <r>   -8.0630    1.0000 </r>
       <r>   -7.9955    1.0000 </r>
       <r>   -7.8979    1.0000 </r>
       <r>   -7.7115    1.0000 </r>
       <r>   -7.5329    1.0000 </r>
       <r>   -7.4062    1.0000 </r>
       <r>   -6.0305    1.0000 </r>
       <r>   -5.8255    1.0000 </r>
       <r>   -4.8947    1.0000 </r>
       <r>   -4.5875    1.0000 </r>
       <r>    0.1852    1.0000 </r>
       <r>    0.2983    1.0000 </r>
       <r>    0.8777    1.0000 </r>
       <r>    0.9257    1.0000 </r>
       <r>    0.9942    1.0000 </r>
       <r>    1.2189    1.0000 </r>
       <r>    1.5869    1.0000 </r>
       <r>    1.6957    1.0000 </r>
       <r>    2.0258    1.0000 </r>
       <r>    2.1284    1.0000 </r>
       <r>    2.4531    1.0000 </r>
       <r>    2.4996    1.0000 </r>
       <r>    2.5479    1.0000 </r>
       <r>    2.5895    1.0000 </r>
       <r>    3.1042    1.0000 </r>
       <r>    3.1293    1.0000 </r>
       <r>    3.1960    1.0000 </r>
       <r>    3.2902    1.0000 </r>
       <r>    3.4174    1.0000 </r>
       <r>    3.5875    1.0000 </r>
       <r>    3.6602    1.0000 </r>
       <r>    3.7573    1.0000 </r>
       <r>    3.8176    1.0000 </r>
       <r>    3.9032    1.0000 </r>
       <r>    5.9264    0.0000 </r>
       <r>    6.0038    0.0000 </r>
       <r>    6.2314    0.0000 </r>
       <r>    6.3531    0.0000 </r>
       <r>    6.6820    0.0000 </r>
       <r>    6.7730    0.0000 </r>
       <r>    6.8902    0.0000 </r>
       <r>    7.0931    0.0000 </r>
       <r>    7.4300    0.0000 </r>
       <r>    7.5723    0.0000 </r>
       <r>    7.7776    0.0000 </r>
       <r>    7.8492    0.0000 </r>
      </set>
      <set comment="kpoint 6">
       <r>  -18.5729    1.0000 </r>
       <r>  -18.5692    1.0000 </r>
       <r>  -18.5518    1.0000 </r>
       <r>  -18.5477    1.0000 </r>
       <r>  -18.5433    1.0000 </r>
       <r>  -18.5339    1.0000 </r>
       <r>  -18.5318    1.0000 </r>
       <r>  -18.5271    1.0000 </r>
       <r>  -18.5182    1.0000 </r>
       <r>  -18.5164    1.0000 </r>
       <r>  -18.5056    1.0000 </r>
       <r>  -18.5047    1.0000 </r>
       <r>  -18.5026    1.0000 </r>
       <r>  -18.5000    1.0000 </r>
       <r>  -18.4940    1.0000 </r>
       <r>  -18.4854    1.0000 </r>
       <r>  -18.4751    1.0000 </r>
       <r>  -18.4722    1.0000 </r>
       <r>  -18.4622    1.0000 </r>
       <r>  -18.4588    1.0000 </r>
       <r>   -9.4066    1.0000 </r>
       <r>   -9.3220    1.0000 </r>
       <r>   -8.1107    1.0000 </r>
       <r>   -8.0343    1.0000 </r>
       <r>   -7.8688    1.0000 </r>
       <r>   -7.8163    1.0000 </r>
       <r>   -7.4231    1.0000 </r>
       <r>   -7.3643    1.0000 </r>
       <r>   -5.9340    1.0000 </r>
       <r>   -5.9277    1.0000 </r>
       <r>   -4.7306    1.0000 </r>
       <r>   -4.7049    1.0000 </r>
       <r>    0.1031    1.0000 </r>
       <r>    0.1816    1.0000 </r>
       <r>    0.8392    1.0000 </r>
       <r>    0.9170    1.0000 </r>
       <r>    1.0167    1.0000 </r>
       <r>    1.0444    1.0000 </r>
       <r>    1.6618    1.0000 </r>
       <r>    1.6986    1.0000 </r>
       <r>    1.9681    1.0000 </r>
       <r>    2.0068    1.0000 </r>
       <r>    2.5085    1.0000 </r>
       <r>    2.5436    1.0000 </r>
       <r>    2.8417    1.0000 </r>
       <r>    2.8823    1.0000 </r>
       <r>    2.9213    1.0000 </r>
       <r>    2.9715    1.0000 </r>
       <r>    3.3500    1.0000 </r>
       <r>    3.3695    1.0000 </r>
       <r>    3.4858    1.0000 </r>
       <r>    3.5017    1.0000 </r>
       <r>    3.7887    1.0000 </r>
       <r>    3.8244    1.0000 </r>
       <r>    3.8719    1.0000 </r>
       <r>    3.8792    1.0000 </r>
       <r>    5.7715    0.0000 </r>
       <r>    5.8151    0.0000 </r>
       <r>    6.3049    0.0000 </r>
       <r>    6.3264    0.0000 </r>
       <r>    6.8327    0.0000 </r>
       <r>    6.8520    0.0000 </r>
       <r>    6.9686    0.0000 </r>
       <r>    7.0095    0.0000 </r>
       <r>    7.4653    0.0000 </r>
       <r>    7.5060    0.0000 </r>
       <r>    7.5641    0.0000 </r>
       <r>    7.5799    0.0000 </r>
      </set>
      <set comment="kpoint 7">
       <r>  -18.5729    1.0000 </r>
       <r>  -18.5692    1.0000 </r>
       <r>  -18.5518    1.0000 </r>
       <r>  -18.5476    1.0000 </r>
       <r>  -18.5433    1.0000 </r>
       <r>  -18.5338    1.0000 </r>
       <r>  -18.5318    1.0000 </r>
       <r>  -18.5271    1.0000 </r>
       <r>  -18.5181    1.0000 </r>
       <r>  -18.5163    1.0000 </r>
       <r>  -18.5056    1.0000 </r>
       <r>  -18.5047    1.0000 </r>
       <r>  -18.5026    1.0000 </r>
       <r>  -18.4999    1.0000 </r>
       <r>  -18.4939    1.0000 </r>
       <r>  -18.4854    1.0000 </r>
       <r>  -18.4750    1.0000 </r>
       <r>  -18.4722    1.0000 </r>
       <r>  -18.4621    1.0000 </r>
       <r>  -18.4588    1.0000 </r>
       <r>   -9.4837    1.0000 </r>
       <r>   -9.2549    1.0000 </r>
       <r>   -8.0638    1.0000 </r>
       <r>   -7.9950    1.0000 </r>
       <r>   -7.8969    1.0000 </r>
       <r>   -7.7119    1.0000 </r>
       <r>   -7.5324    1.0000 </r>
       <r>   -7.4070    1.0000 </r>
       <r>   -6.0307    1.0000 </r>
       <r>   -5.8253    1.0000 </r>
       <r>   -4.8944    1.0000 </r>
       <r>   -4.5878    1.0000 </r>
       <r>    0.1860    1.0000 </r>
       <r>    0.2987    1.0000 </r>
       <r>    0.8780    1.0000 </r>
       <r>    0.9239    1.0000 </r>
       <r>    0.9981    1.0000 </r>
       <r>    1.2179    1.0000 </r>
       <r>    1.5821    1.0000 </r>
       <r>    1.6931    1.0000 </r>
       <r>    2.0273    1.0000 </r>
       <r>    2.1297    1.0000 </r>
       <r>    2.4557    1.0000 </r>
       <r>    2.4981    1.0000 </r>
       <r>    2.5449    1.0000 </r>
       <r>    2.5928    1.0000 </r>
       <r>    3.1131    1.0000 </r>
       <r>    3.1240    1.0000 </r>
       <r>    3.1961    1.0000 </r>
       <r>    3.2883    1.0000 </r>
       <r>    3.4156    1.0000 </r>
       <r>    3.5891    1.0000 </r>
       <r>    3.6595    1.0000 </r>
       <r>    3.7551    1.0000 </r>
       <r>    3.8205    1.0000 </r>
       <r>    3.9021    1.0000 </r>
       <r>    5.9323    0.0000 </r>
       <r>    6.0057    0.0000 </r>
       <r>    6.2241    0.0000 </r>
       <r>    6.3434    0.0000 </r>
       <r>    6.6863    0.0000 </r>
       <r>    6.7817    0.0000 </r>
       <r>    6.8930    0.0000 </r>
       <r>    7.0872    0.0000 </r>
       <r>    7.4287    0.0000 </r>
       <r>    7.5664    0.0000 </r>
       <r>    7.7876    0.0000 </r>
       <r>    7.8482    0.0000 </r>
      </set>
      <set comment="kpoint 8">
       <r>  -18.5756    1.0000 </r>
       <r>  -18.5654    1.0000 </r>
       <r>  -18.5509    1.0000 </r>
       <r>  -18.5490    1.0000 </r>
       <r>  -18.5405    1.0000 </r>
       <r>  -18.5351    1.0000 </r>
       <r>  -18.5313    1.0000 </r>
       <r>  -18.5284    1.0000 </r>
       <r>  -18.5181    1.0000 </r>
       <r>  -18.5124    1.0000 </r>
       <r>  -18.5083    1.0000 </r>
       <r>  -18.5053    1.0000 </r>
       <r>  -18.5032    1.0000 </r>
       <r>  -18.4953    1.0000 </r>
       <r>  -18.4930    1.0000 </r>
       <r>  -18.4845    1.0000 </r>
       <r>  -18.4747    1.0000 </r>
       <r>  -18.4721    1.0000 </r>
       <r>  -18.4622    1.0000 </r>
       <r>  -18.4588    1.0000 </r>
       <r>   -9.2417    1.0000 </r>
       <r>   -8.9544    1.0000 </r>
       <r>   -7.8529    1.0000 </r>
       <r>   -7.8282    1.0000 </r>
       <r>   -7.7285    1.0000 </r>
       <r>   -7.6062    1.0000 </r>
       <r>   -7.4974    1.0000 </r>
       <r>   -7.4148    1.0000 </r>
       <r>   -6.2210    1.0000 </r>
       <r>   -6.0459    1.0000 </r>
       <r>   -5.1880    1.0000 </r>
       <r>   -4.8743    1.0000 </r>
       <r>    0.2023    1.0000 </r>
       <r>    0.2906    1.0000 </r>
       <r>    0.4166    1.0000 </r>
       <r>    0.4778    1.0000 </r>
       <r>    0.6201    1.0000 </r>
       <r>    1.1008    1.0000 </r>
       <r>    1.4856    1.0000 </r>
       <r>    1.5923    1.0000 </r>
       <r>    1.7239    1.0000 </r>
       <r>    1.8131    1.0000 </r>
       <r>    1.8507    1.0000 </r>
       <r>    2.1137    1.0000 </r>
       <r>    2.3369    1.0000 </r>
       <r>    2.3604    1.0000 </r>
       <r>    2.5705    1.0000 </r>
       <r>    2.8803    1.0000 </r>
       <r>    3.0005    1.0000 </r>
       <r>    3.2281    1.0000 </r>
       <r>    3.3688    1.0000 </r>
       <r>    3.5138    1.0000 </r>
       <r>    3.6962    1.0000 </r>
       <r>    3.7921    1.0000 </r>
       <r>    3.8566    1.0000 </r>
       <r>    3.8652    1.0000 </r>
       <r>    6.2085    0.0000 </r>
       <r>    6.3987    0.0000 </r>
       <r>    6.4181    0.0000 </r>
       <r>    6.5009    0.0000 </r>
       <r>    6.6379    0.0000 </r>
       <r>    6.8653    0.0000 </r>
       <r>    6.9663    0.0000 </r>
       <r>    7.0876    0.0000 </r>
       <r>    7.6740    0.0000 </r>
       <r>    7.8644    0.0000 </r>
       <r>    8.0561    0.0000 </r>
       <r>    8.2093    0.0000 </r>
      </set>
      <set comment="kpoint 9">
       <r>  -18.5756    1.0000 </r>
       <r>  -18.5654    1.0000 </r>
       <r>  -18.5510    1.0000 </r>
       <r>  -18.5491    1.0000 </r>
       <r>  -18.5406    1.0000 </r>
       <r>  -18.5352    1.0000 </r>
       <r>  -18.5314    1.0000 </r>
       <r>  -18.5284    1.0000 </r>
       <r>  -18.5181    1.0000 </r>
       <r>  -18.5124    1.0000 </r>
       <r>  -18.5084    1.0000 </r>
       <r>  -18.5053    1.0000 </r>
       <r>  -18.5032    1.0000 </r>
       <r>  -18.4953    1.0000 </r>
       <r>  -18.4931    1.0000 </r>
       <r>  -18.4846    1.0000 </r>
       <r>  -18.4748    1.0000 </r>
       <r>  -18.4722    1.0000 </r>
       <r>  -18.4623    1.0000 </r>
       <r>  -18.4588    1.0000 </r>
       <r>   -9.1999    1.0000 </r>
       <r>   -8.9848    1.0000 </r>
       <r>   -7.9208    1.0000 </r>
       <r>   -7.8288    1.0000 </r>
       <r>   -7.7937    1.0000 </r>
       <r>   -7.6005    1.0000 </r>
       <r>   -7.4407    1.0000 </r>
       <r>   -7.3626    1.0000 </r>
       <r>   -6.1942    1.0000 </r>
       <r>   -6.0656    1.0000 </r>
       <r>   -5.1301    1.0000 </r>
       <r>   -4.9102    1.0000 </r>
       <r>    0.2355    1.0000 </r>
       <r>    0.2587    1.0000 </r>
       <r>    0.3461    1.0000 </r>
       <r>    0.5038    1.0000 </r>
       <r>    0.6779    1.0000 </r>
       <r>    1.0654    1.0000 </r>
       <r>    1.2821    1.0000 </r>
       <r>    1.3424    1.0000 </r>
       <r>    1.7733    1.0000 </r>
       <r>    1.7870    1.0000 </r>
       <r>    1.9145    1.0000 </r>
       <r>    2.1835    1.0000 </r>
       <r>    2.3833    1.0000 </r>
       <r>    2.5391    1.0000 </r>
       <r>    2.6893    1.0000 </r>
       <r>    2.9817    1.0000 </r>
       <r>    3.2604    1.0000 </r>
       <r>    3.2851    1.0000 </r>
       <r>    3.4037    1.0000 </r>
       <r>    3.4550    1.0000 </r>
       <r>    3.5728    1.0000 </r>
       <r>    3.6976    1.0000 </r>
       <r>    3.7589    1.0000 </r>
       <r>    3.7689    1.0000 </r>
       <r>    5.6939    0.0000 </r>
       <r>    6.1022    0.0000 </r>
       <r>    6.4670    0.0000 </r>
       <r>    6.6377    0.0000 </r>
       <r>    6.9501    0.0000 </r>
       <r>    7.0490    0.0000 </r>
       <r>    7.2815    0.0000 </r>
       <r>    7.3223    0.0000 </r>
       <r>    7.5172    0.0000 </r>
       <r>    7.6522    0.0000 </r>
       <r>    7.9918    0.0000 </r>
       <r>    8.2072    0.0000 </r>
      </set>
      <set comment="kpoint 10">
       <r>  -18.5756    1.0000 </r>
       <r>  -18.5654    1.0000 </r>
       <r>  -18.5510    1.0000 </r>
       <r>  -18.5491    1.0000 </r>
       <r>  -18.5406    1.0000 </r>
       <r>  -18.5352    1.0000 </r>
       <r>  -18.5315    1.0000 </r>
       <r>  -18.5284    1.0000 </r>
       <r>  -18.5181    1.0000 </r>
       <r>  -18.5125    1.0000 </r>
       <r>  -18.5084    1.0000 </r>
       <r>  -18.5053    1.0000 </r>
       <r>  -18.5032    1.0000 </r>
       <r>  -18.4954    1.0000 </r>
       <r>  -18.4931    1.0000 </r>
       <r>  -18.4846    1.0000 </r>
       <r>  -18.4748    1.0000 </r>
       <r>  -18.4722    1.0000 </r>
       <r>  -18.4623    1.0000 </r>
       <r>  -18.4588    1.0000 </r>
       <r>   -9.1274    1.0000 </r>
       <r>   -9.0474    1.0000 </r>
       <r>   -7.9635    1.0000 </r>
       <r>   -7.8963    1.0000 </r>
       <r>   -7.7250    1.0000 </r>
       <r>   -7.6793    1.0000 </r>
       <r>   -7.3752    1.0000 </r>
       <r>   -7.3263    1.0000 </r>
       <r>   -6.1346    1.0000 </r>
       <r>   -6.1164    1.0000 </r>
       <r>   -5.0127    1.0000 </r>
       <r>   -5.0061    1.0000 </r>
       <r>    0.1982    1.0000 </r>
       <r>    0.2309    1.0000 </r>
       <r>    0.4286    1.0000 </r>
       <r>    0.4552    1.0000 </r>
       <r>    0.8564    1.0000 </r>
       <r>    0.8688    1.0000 </r>
       <r>    1.1963    1.0000 </r>
       <r>    1.2135    1.0000 </r>
       <r>    1.6498    1.0000 </r>
       <r>    1.6607    1.0000 </r>
       <r>    2.0381    1.0000 </r>
       <r>    2.1069    1.0000 </r>
       <r>    2.7910    1.0000 </r>
       <r>    2.8047    1.0000 </r>
       <r>    3.0150    1.0000 </r>
       <r>    3.0219    1.0000 </r>
       <r>    3.2484    1.0000 </r>
       <r>    3.2609    1.0000 </r>
       <r>    3.3711    1.0000 </r>
       <r>    3.3967    1.0000 </r>
       <r>    3.5032    1.0000 </r>
       <r>    3.5222    1.0000 </r>
       <r>    3.6242    1.0000 </r>
       <r>    3.6314    1.0000 </r>
       <r>    5.7952    0.0000 </r>
       <r>    5.8411    0.0000 </r>
       <r>    6.4677    0.0000 </r>
       <r>    6.4870    0.0000 </r>
       <r>    7.0815    0.0000 </r>
       <r>    7.1081    0.0000 </r>
       <r>    7.3235    0.0000 </r>
       <r>    7.3306    0.0000 </r>
       <r>    7.7340    0.0000 </r>
       <r>    7.7537    0.0000 </r>
       <r>    8.0356    0.0000 </r>
       <r>    8.0467    0.0000 </r>
      </set>
      <set comment="kpoint 11">
       <r>  -18.5756    1.0000 </r>
       <r>  -18.5654    1.0000 </r>
       <r>  -18.5510    1.0000 </r>
       <r>  -18.5491    1.0000 </r>
       <r>  -18.5406    1.0000 </r>
       <r>  -18.5352    1.0000 </r>
       <r>  -18.5314    1.0000 </r>
       <r>  -18.5284    1.0000 </r>
       <r>  -18.5181    1.0000 </r>
       <r>  -18.5124    1.0000 </r>
       <r>  -18.5084    1.0000 </r>
       <r>  -18.5053    1.0000 </r>
       <r>  -18.5032    1.0000 </r>
       <r>  -18.4953    1.0000 </r>
       <r>  -18.4931    1.0000 </r>
       <r>  -18.4846    1.0000 </r>
       <r>  -18.4748    1.0000 </r>
       <r>  -18.4722    1.0000 </r>
       <r>  -18.4623    1.0000 </r>
       <r>  -18.4588    1.0000 </r>
       <r>   -9.1999    1.0000 </r>
       <r>   -8.9848    1.0000 </r>
       <r>   -7.9216    1.0000 </r>
       <r>   -7.8313    1.0000 </r>
       <r>   -7.7886    1.0000 </r>
       <r>   -7.6017    1.0000 </r>
       <r>   -7.4393    1.0000 </r>
       <r>   -7.3646    1.0000 </r>
       <r>   -6.1949    1.0000 </r>
       <r>   -6.0649    1.0000 </r>
       <r>   -5.1293    1.0000 </r>
       <r>   -4.9108    1.0000 </r>
       <r>    0.2416    1.0000 </r>
       <r>    0.2573    1.0000 </r>
       <r>    0.3419    1.0000 </r>
       <r>    0.5051    1.0000 </r>
       <r>    0.6807    1.0000 </r>
       <r>    1.0625    1.0000 </r>
       <r>    1.2791    1.0000 </r>
       <r>    1.3397    1.0000 </r>
       <r>    1.7708    1.0000 </r>
       <r>    1.7915    1.0000 </r>
       <r>    1.9152    1.0000 </r>
       <r>    2.1817    1.0000 </r>
       <r>    2.3857    1.0000 </r>
       <r>    2.5391    1.0000 </r>
       <r>    2.6897    1.0000 </r>
       <r>    2.9794    1.0000 </r>
       <r>    3.2588    1.0000 </r>
       <r>    3.2874    1.0000 </r>
       <r>    3.4067    1.0000 </r>
       <r>    3.4547    1.0000 </r>
       <r>    3.5733    1.0000 </r>
       <r>    3.6965    1.0000 </r>
       <r>    3.7612    1.0000 </r>
       <r>    3.7674    1.0000 </r>
       <r>    5.6897    0.0000 </r>
       <r>    6.1023    0.0000 </r>
       <r>    6.4708    0.0000 </r>
       <r>    6.6411    0.0000 </r>
       <r>    6.9481    0.0000 </r>
       <r>    7.0465    0.0000 </r>
       <r>    7.2841    0.0000 </r>
       <r>    7.3270    0.0000 </r>
       <r>    7.5066    0.0000 </r>
       <r>    7.6529    0.0000 </r>
       <r>    7.9935    0.0000 </r>
       <r>    8.2110    0.0000 </r>
      </set>
      <set comment="kpoint 12">
       <r>  -18.5805    1.0000 </r>
       <r>  -18.5604    1.0000 </r>
       <r>  -18.5537    1.0000 </r>
       <r>  -18.5500    1.0000 </r>
       <r>  -18.5376    1.0000 </r>
       <r>  -18.5354    1.0000 </r>
       <r>  -18.5315    1.0000 </r>
       <r>  -18.5294    1.0000 </r>
       <r>  -18.5181    1.0000 </r>
       <r>  -18.5116    1.0000 </r>
       <r>  -18.5093    1.0000 </r>
       <r>  -18.5064    1.0000 </r>
       <r>  -18.5018    1.0000 </r>
       <r>  -18.4924    1.0000 </r>
       <r>  -18.4897    1.0000 </r>
       <r>  -18.4837    1.0000 </r>
       <r>  -18.4762    1.0000 </r>
       <r>  -18.4697    1.0000 </r>
       <r>  -18.4641    1.0000 </r>
       <r>  -18.4564    1.0000 </r>
       <r>   -8.8019    1.0000 </r>
       <r>   -8.5545    1.0000 </r>
       <r>   -7.8856    1.0000 </r>
       <r>   -7.8244    1.0000 </r>
       <r>   -7.5963    1.0000 </r>
       <r>   -7.4756    1.0000 </r>
       <r>   -7.3754    1.0000 </r>
       <r>   -7.3565    1.0000 </r>
       <r>   -6.2816    1.0000 </r>
       <r>   -6.1586    1.0000 </r>
       <r>   -5.5580    1.0000 </r>
       <r>   -5.3698    1.0000 </r>
       <r>   -0.0988    1.0000 </r>
       <r>   -0.0060    1.0000 </r>
       <r>    0.0340    1.0000 </r>
       <r>    0.1009    1.0000 </r>
       <r>    0.5840    1.0000 </r>
       <r>    0.9519    1.0000 </r>
       <r>    1.0236    1.0000 </r>
       <r>    1.4667    1.0000 </r>
       <r>    1.7076    1.0000 </r>
       <r>    1.7349    1.0000 </r>
       <r>    1.7730    1.0000 </r>
       <r>    2.2200    1.0000 </r>
       <r>    2.2838    1.0000 </r>
       <r>    2.3031    1.0000 </r>
       <r>    2.5631    1.0000 </r>
       <r>    2.6115    1.0000 </r>
       <r>    3.0145    1.0000 </r>
       <r>    3.1078    1.0000 </r>
       <r>    3.1147    1.0000 </r>
       <r>    3.1825    1.0000 </r>
       <r>    3.2973    1.0000 </r>
       <r>    3.4688    1.0000 </r>
       <r>    3.6138    1.0000 </r>
       <r>    3.7378    1.0000 </r>
       <r>    6.0756    0.0000 </r>
       <r>    6.4679    0.0000 </r>
       <r>    6.6660    0.0000 </r>
       <r>    6.7567    0.0000 </r>
       <r>    6.8008    0.0000 </r>
       <r>    7.0437    0.0000 </r>
       <r>    7.2227    0.0000 </r>
       <r>    7.3438    0.0000 </r>
       <r>    7.6795    0.0000 </r>
       <r>    7.7974    0.0000 </r>
       <r>    8.0227    0.0000 </r>
       <r>    8.3850    0.0000 </r>
      </set>
      <set comment="kpoint 13">
       <r>  -18.5804    1.0000 </r>
       <r>  -18.5604    1.0000 </r>
       <r>  -18.5537    1.0000 </r>
       <r>  -18.5500    1.0000 </r>
       <r>  -18.5375    1.0000 </r>
       <r>  -18.5355    1.0000 </r>
       <r>  -18.5315    1.0000 </r>
       <r>  -18.5294    1.0000 </r>
       <r>  -18.5181    1.0000 </r>
       <r>  -18.5115    1.0000 </r>
       <r>  -18.5093    1.0000 </r>
       <r>  -18.5064    1.0000 </r>
       <r>  -18.5019    1.0000 </r>
       <r>  -18.4924    1.0000 </r>
       <r>  -18.4897    1.0000 </r>
       <r>  -18.4838    1.0000 </r>
       <r>  -18.4761    1.0000 </r>
       <r>  -18.4697    1.0000 </r>
       <r>  -18.4641    1.0000 </r>
       <r>  -18.4565    1.0000 </r>
       <r>   -8.7660    1.0000 </r>
       <r>   -8.5801    1.0000 </r>
       <r>   -7.9047    1.0000 </r>
       <r>   -7.8504    1.0000 </r>
       <r>   -7.5781    1.0000 </r>
       <r>   -7.4793    1.0000 </r>
       <r>   -7.3765    1.0000 </r>
       <r>   -7.3514    1.0000 </r>
       <r>   -6.2588    1.0000 </r>
       <r>   -6.1664    1.0000 </r>
       <r>   -5.5302    1.0000 </r>
       <r>   -5.3961    1.0000 </r>
       <r>   -0.1139    1.0000 </r>
       <r>    0.0279    1.0000 </r>
       <r>    0.0515    1.0000 </r>
       <r>    0.1417    1.0000 </r>
       <r>    0.7004    1.0000 </r>
       <r>    0.9439    1.0000 </r>
       <r>    1.1812    1.0000 </r>
       <r>    1.3655    1.0000 </r>
       <r>    1.5130    1.0000 </r>
       <r>    1.6323    1.0000 </r>
       <r>    1.7601    1.0000 </r>
       <r>    2.1246    1.0000 </r>
       <r>    2.1993    1.0000 </r>
       <r>    2.5333    1.0000 </r>
       <r>    2.5889    1.0000 </r>
       <r>    2.8483    1.0000 </r>
       <r>    2.8920    1.0000 </r>
       <r>    2.9806    1.0000 </r>
       <r>    3.1185    1.0000 </r>
       <r>    3.2583    1.0000 </r>
       <r>    3.2766    1.0000 </r>
       <r>    3.3354    1.0000 </r>
       <r>    3.5427    1.0000 </r>
       <r>    3.6191    1.0000 </r>
       <r>    6.0367    0.0000 </r>
       <r>    6.2912    0.0000 </r>
       <r>    6.6561    0.0000 </r>
       <r>    6.9007    0.0000 </r>
       <r>    7.0228    0.0000 </r>
       <r>    7.1025    0.0000 </r>
       <r>    7.2240    0.0000 </r>
       <r>    7.3929    0.0000 </r>
       <r>    7.7591    0.0000 </r>
       <r>    7.8073    0.0000 </r>
       <r>    8.0960    0.0000 </r>
       <r>    8.4319    0.0000 </r>
      </set>
      <set comment="kpoint 14">
       <r>  -18.5804    1.0000 </r>
       <r>  -18.5604    1.0000 </r>
       <r>  -18.5537    1.0000 </r>
       <r>  -18.5500    1.0000 </r>
       <r>  -18.5375    1.0000 </r>
       <r>  -18.5355    1.0000 </r>
       <r>  -18.5316    1.0000 </r>
       <r>  -18.5293    1.0000 </r>
       <r>  -18.5181    1.0000 </r>
       <r>  -18.5116    1.0000 </r>
       <r>  -18.5093    1.0000 </r>
       <r>  -18.5064    1.0000 </r>
       <r>  -18.5019    1.0000 </r>
       <r>  -18.4924    1.0000 </r>
       <r>  -18.4897    1.0000 </r>
       <r>  -18.4838    1.0000 </r>
       <r>  -18.4761    1.0000 </r>
       <r>  -18.4697    1.0000 </r>
       <r>  -18.4641    1.0000 </r>
       <r>  -18.4565    1.0000 </r>
       <r>   -8.7052    1.0000 </r>
       <r>   -8.6318    1.0000 </r>
       <r>   -7.9243    1.0000 </r>
       <r>   -7.8708    1.0000 </r>
       <r>   -7.5397    1.0000 </r>
       <r>   -7.5099    1.0000 </r>
       <r>   -7.3753    1.0000 </r>
       <r>   -7.3462    1.0000 </r>
       <r>   -6.2272    1.0000 </r>
       <r>   -6.1827    1.0000 </r>
       <r>   -5.4719    1.0000 </r>
       <r>   -5.4528    1.0000 </r>
       <r>   -0.0948    1.0000 </r>
       <r>   -0.0525    1.0000 </r>
       <r>    0.1788    1.0000 </r>
       <r>    0.1874    1.0000 </r>
       <r>    0.8824    1.0000 </r>
       <r>    0.9344    1.0000 </r>
       <r>    1.1553    1.0000 </r>
       <r>    1.1792    1.0000 </r>
       <r>    1.5806    1.0000 </r>
       <r>    1.6315    1.0000 </r>
       <r>    1.7704    1.0000 </r>
       <r>    1.7903    1.0000 </r>
       <r>    2.5668    1.0000 </r>
       <r>    2.5798    1.0000 </r>
       <r>    2.6977    1.0000 </r>
       <r>    2.7270    1.0000 </r>
       <r>    2.7396    1.0000 </r>
       <r>    2.7503    1.0000 </r>
       <r>    3.2398    1.0000 </r>
       <r>    3.2549    1.0000 </r>
       <r>    3.3390    1.0000 </r>
       <r>    3.3728    1.0000 </r>
       <r>    3.4189    1.0000 </r>
       <r>    3.4296    1.0000 </r>
       <r>    6.1722    0.0000 </r>
       <r>    6.2285    0.0000 </r>
       <r>    6.7246    0.0000 </r>
       <r>    6.7598    0.0000 </r>
       <r>    6.9579    0.0000 </r>
       <r>    6.9950    0.0000 </r>
       <r>    7.3255    0.0000 </r>
       <r>    7.3747    0.0000 </r>
       <r>    7.9878    0.0000 </r>
       <r>    8.0230    0.0000 </r>
       <r>    8.3388    0.0000 </r>
       <r>    8.3705    0.0000 </r>
      </set>
      <set comment="kpoint 15">
       <r>  -18.5804    1.0000 </r>
       <r>  -18.5604    1.0000 </r>
       <r>  -18.5537    1.0000 </r>
       <r>  -18.5500    1.0000 </r>
       <r>  -18.5375    1.0000 </r>
       <r>  -18.5355    1.0000 </r>
       <r>  -18.5315    1.0000 </r>
       <r>  -18.5294    1.0000 </r>
       <r>  -18.5180    1.0000 </r>
       <r>  -18.5115    1.0000 </r>
       <r>  -18.5093    1.0000 </r>
       <r>  -18.5064    1.0000 </r>
       <r>  -18.5019    1.0000 </r>
       <r>  -18.4924    1.0000 </r>
       <r>  -18.4897    1.0000 </r>
       <r>  -18.4838    1.0000 </r>
       <r>  -18.4761    1.0000 </r>
       <r>  -18.4697    1.0000 </r>
       <r>  -18.4641    1.0000 </r>
       <r>  -18.4565    1.0000 </r>
       <r>   -8.7661    1.0000 </r>
       <r>   -8.5802    1.0000 </r>
       <r>   -7.9038    1.0000 </r>
       <r>   -7.8510    1.0000 </r>
       <r>   -7.5758    1.0000 </r>
       <r>   -7.4817    1.0000 </r>
       <r>   -7.3763    1.0000 </r>
       <r>   -7.3518    1.0000 </r>
       <r>   -6.2596    1.0000 </r>
       <r>   -6.1655    1.0000 </r>
       <r>   -5.5290    1.0000 </r>
       <r>   -5.3972    1.0000 </r>
       <r>   -0.1134    1.0000 </r>
       <r>    0.0267    1.0000 </r>
       <r>    0.0528    1.0000 </r>
       <r>    0.1425    1.0000 </r>
       <r>    0.7012    1.0000 </r>
       <r>    0.9413    1.0000 </r>
       <r>    1.1828    1.0000 </r>
       <r>    1.3623    1.0000 </r>
       <r>    1.5131    1.0000 </r>
       <r>    1.6333    1.0000 </r>
       <r>    1.7603    1.0000 </r>
       <r>    2.1241    1.0000 </r>
       <r>    2.2017    1.0000 </r>
       <r>    2.5284    1.0000 </r>
       <r>    2.5887    1.0000 </r>
       <r>    2.8464    1.0000 </r>
       <r>    2.8942    1.0000 </r>
       <r>    2.9804    1.0000 </r>
       <r>    3.1220    1.0000 </r>
       <r>    3.2544    1.0000 </r>
       <r>    3.2779    1.0000 </r>
       <r>    3.3379    1.0000 </r>
       <r>    3.5439    1.0000 </r>
       <r>    3.6190    1.0000 </r>
       <r>    6.0340    0.0000 </r>
       <r>    6.2892    0.0000 </r>
       <r>    6.6580    0.0000 </r>
       <r>    6.9059    0.0000 </r>
       <r>    7.0211    0.0000 </r>
       <r>    7.1073    0.0000 </r>
       <r>    7.2148    0.0000 </r>
       <r>    7.4019    0.0000 </r>
       <r>    7.7450    0.0000 </r>
       <r>    7.8111    0.0000 </r>
       <r>    8.0980    0.0000 </r>
       <r>    8.4357    0.0000 </r>
      </set>
      <set comment="kpoint 16">
       <r>  -18.5825    1.0000 </r>
       <r>  -18.5586    1.0000 </r>
       <r>  -18.5557    1.0000 </r>
       <r>  -18.5494    1.0000 </r>
       <r>  -18.5386    1.0000 </r>
       <r>  -18.5346    1.0000 </r>
       <r>  -18.5319    1.0000 </r>
       <r>  -18.5285    1.0000 </r>
       <r>  -18.5178    1.0000 </r>
       <r>  -18.5126    1.0000 </r>
       <r>  -18.5108    1.0000 </r>
       <r>  -18.5038    1.0000 </r>
       <r>  -18.5016    1.0000 </r>
       <r>  -18.4920    1.0000 </r>
       <r>  -18.4877    1.0000 </r>
       <r>  -18.4833    1.0000 </r>
       <r>  -18.4766    1.0000 </r>
       <r>  -18.4683    1.0000 </r>
       <r>  -18.4649    1.0000 </r>
       <r>  -18.4551    1.0000 </r>
       <r>   -8.3265    1.0000 </r>
       <r>   -8.2541    1.0000 </r>
       <r>   -8.1384    1.0000 </r>
       <r>   -8.0876    1.0000 </r>
       <r>   -7.4660    1.0000 </r>
       <r>   -7.4123    1.0000 </r>
       <r>   -7.3862    1.0000 </r>
       <r>   -7.3329    1.0000 </r>
       <r>   -6.0361    1.0000 </r>
       <r>   -5.9746    1.0000 </r>
       <r>   -5.8933    1.0000 </r>
       <r>   -5.8560    1.0000 </r>
       <r>   -0.1691    1.0000 </r>
       <r>   -0.1517    1.0000 </r>
       <r>   -0.1052    1.0000 </r>
       <r>   -0.0890    1.0000 </r>
       <r>    0.6124    1.0000 </r>
       <r>    0.6259    1.0000 </r>
       <r>    1.4606    1.0000 </r>
       <r>    1.4686    1.0000 </r>
       <r>    1.5301    1.0000 </r>
       <r>    1.5466    1.0000 </r>
       <r>    1.7970    1.0000 </r>
       <r>    1.8320    1.0000 </r>
       <r>    2.4710    1.0000 </r>
       <r>    2.5071    1.0000 </r>
       <r>    2.6812    1.0000 </r>
       <r>    2.7269    1.0000 </r>
       <r>    2.8901    1.0000 </r>
       <r>    2.8999    1.0000 </r>
       <r>    3.0474    1.0000 </r>
       <r>    3.0669    1.0000 </r>
       <r>    3.3028    1.0000 </r>
       <r>    3.3156    1.0000 </r>
       <r>    3.3908    1.0000 </r>
       <r>    3.4299    1.0000 </r>
       <r>    6.0839    0.0000 </r>
       <r>    6.2161    0.0000 </r>
       <r>    6.8213    0.0000 </r>
       <r>    6.9105    0.0000 </r>
       <r>    6.9942    0.0000 </r>
       <r>    7.0110    0.0000 </r>
       <r>    7.3974    0.0000 </r>
       <r>    7.5123    0.0000 </r>
       <r>    7.7405    0.0000 </r>
       <r>    7.8104    0.0000 </r>
       <r>    8.0545    0.0000 </r>
       <r>    8.0700    0.0000 </r>
      </set>
      <set comment="kpoint 17">
       <r>  -18.5825    1.0000 </r>
       <r>  -18.5587    1.0000 </r>
       <r>  -18.5557    1.0000 </r>
       <r>  -18.5494    1.0000 </r>
       <r>  -18.5386    1.0000 </r>
       <r>  -18.5346    1.0000 </r>
       <r>  -18.5319    1.0000 </r>
       <r>  -18.5286    1.0000 </r>
       <r>  -18.5177    1.0000 </r>
       <r>  -18.5126    1.0000 </r>
       <r>  -18.5108    1.0000 </r>
       <r>  -18.5039    1.0000 </r>
       <r>  -18.5017    1.0000 </r>
       <r>  -18.4920    1.0000 </r>
       <r>  -18.4877    1.0000 </r>
       <r>  -18.4833    1.0000 </r>
       <r>  -18.4767    1.0000 </r>
       <r>  -18.4684    1.0000 </r>
       <r>  -18.4650    1.0000 </r>
       <r>  -18.4551    1.0000 </r>
       <r>   -8.3079    1.0000 </r>
       <r>   -8.2293    1.0000 </r>
       <r>   -8.1534    1.0000 </r>
       <r>   -8.1098    1.0000 </r>
       <r>   -7.4654    1.0000 </r>
       <r>   -7.4108    1.0000 </r>
       <r>   -7.3972    1.0000 </r>
       <r>   -7.3433    1.0000 </r>
       <r>   -6.0206    1.0000 </r>
       <r>   -5.9565    1.0000 </r>
       <r>   -5.9071    1.0000 </r>
       <r>   -5.8714    1.0000 </r>
       <r>   -0.1719    1.0000 </r>
       <r>   -0.1494    1.0000 </r>
       <r>   -0.0763    1.0000 </r>
       <r>   -0.0695    1.0000 </r>
       <r>    0.8457    1.0000 </r>
       <r>    0.8541    1.0000 </r>
       <r>    1.2885    1.0000 </r>
       <r>    1.3401    1.0000 </r>
       <r>    1.5205    1.0000 </r>
       <r>    1.5840    1.0000 </r>
       <r>    1.8047    1.0000 </r>
       <r>    1.8433    1.0000 </r>
       <r>    2.3344    1.0000 </r>
       <r>    2.3517    1.0000 </r>
       <r>    2.5887    1.0000 </r>
       <r>    2.6366    1.0000 </r>
       <r>    2.9520    1.0000 </r>
       <r>    2.9703    1.0000 </r>
       <r>    3.0429    1.0000 </r>
       <r>    3.0939    1.0000 </r>
       <r>    3.1179    1.0000 </r>
       <r>    3.1551    1.0000 </r>
       <r>    3.4120    1.0000 </r>
       <r>    3.4262    1.0000 </r>
       <r>    6.4377    0.0000 </r>
       <r>    6.5435    0.0000 </r>
       <r>    6.6643    0.0000 </r>
       <r>    6.7224    0.0000 </r>
       <r>    6.8734    0.0000 </r>
       <r>    6.8975    0.0000 </r>
       <r>    7.4149    0.0000 </r>
       <r>    7.4417    0.0000 </r>
       <r>    7.9425    0.0000 </r>
       <r>    7.9701    0.0000 </r>
       <r>    8.1560    0.0000 </r>
       <r>    8.1722    0.0000 </r>
      </set>
      <set comment="kpoint 18">
       <r>  -18.5826    1.0000 </r>
       <r>  -18.5587    1.0000 </r>
       <r>  -18.5557    1.0000 </r>
       <r>  -18.5495    1.0000 </r>
       <r>  -18.5386    1.0000 </r>
       <r>  -18.5347    1.0000 </r>
       <r>  -18.5320    1.0000 </r>
       <r>  -18.5286    1.0000 </r>
       <r>  -18.5178    1.0000 </r>
       <r>  -18.5127    1.0000 </r>
       <r>  -18.5108    1.0000 </r>
       <r>  -18.5039    1.0000 </r>
       <r>  -18.5018    1.0000 </r>
       <r>  -18.4921    1.0000 </r>
       <r>  -18.4878    1.0000 </r>
       <r>  -18.4834    1.0000 </r>
       <r>  -18.4767    1.0000 </r>
       <r>  -18.4684    1.0000 </r>
       <r>  -18.4650    1.0000 </r>
       <r>  -18.4552    1.0000 </r>
       <r>   -8.2837    1.0000 </r>
       <r>   -8.1801    1.0000 </r>
       <r>   -8.1744    1.0000 </r>
       <r>   -8.1561    1.0000 </r>
       <r>   -7.4645    1.0000 </r>
       <r>   -7.4098    1.0000 </r>
       <r>   -7.4076    1.0000 </r>
       <r>   -7.3538    1.0000 </r>
       <r>   -6.0006    1.0000 </r>
       <r>   -5.9325    1.0000 </r>
       <r>   -5.9177    1.0000 </r>
       <r>   -5.9005    1.0000 </r>
       <r>   -0.1199    1.0000 </r>
       <r>   -0.1067    1.0000 </r>
       <r>   -0.0951    1.0000 </r>
       <r>   -0.0779    1.0000 </r>
       <r>    1.1318    1.0000 </r>
       <r>    1.1653    1.0000 </r>
       <r>    1.1950    1.0000 </r>
       <r>    1.2042    1.0000 </r>
       <r>    1.6471    1.0000 </r>
       <r>    1.6698    1.0000 </r>
       <r>    1.6863    1.0000 </r>
       <r>    1.7029    1.0000 </r>
       <r>    2.2612    1.0000 </r>
       <r>    2.2955    1.0000 </r>
       <r>    2.3023    1.0000 </r>
       <r>    2.3051    1.0000 </r>
       <r>    2.8736    1.0000 </r>
       <r>    2.9142    1.0000 </r>
       <r>    2.9210    1.0000 </r>
       <r>    2.9516    1.0000 </r>
       <r>    3.3714    1.0000 </r>
       <r>    3.3904    1.0000 </r>
       <r>    3.4075    1.0000 </r>
       <r>    3.4140    1.0000 </r>
       <r>    6.5322    0.0000 </r>
       <r>    6.5855    0.0000 </r>
       <r>    6.6012    0.0000 </r>
       <r>    6.6250    0.0000 </r>
       <r>    7.0833    0.0000 </r>
       <r>    7.1370    0.0000 </r>
       <r>    7.1469    0.0000 </r>
       <r>    7.1920    0.0000 </r>
       <r>    8.1877    0.0000 </r>
       <r>    8.2179    0.0000 </r>
       <r>    8.2472    0.0000 </r>
       <r>    8.2589    0.0000 </r>
      </set>
      <set comment="kpoint 19">
       <r>  -18.5749    1.0000 </r>
       <r>  -18.5677    1.0000 </r>
       <r>  -18.5522    1.0000 </r>
       <r>  -18.5499    1.0000 </r>
       <r>  -18.5416    1.0000 </r>
       <r>  -18.5341    1.0000 </r>
       <r>  -18.5310    1.0000 </r>
       <r>  -18.5273    1.0000 </r>
       <r>  -18.5201    1.0000 </r>
       <r>  -18.5154    1.0000 </r>
       <r>  -18.5055    1.0000 </r>
       <r>  -18.5048    1.0000 </r>
       <r>  -18.5041    1.0000 </r>
       <r>  -18.4986    1.0000 </r>
       <r>  -18.4944    1.0000 </r>
       <r>  -18.4857    1.0000 </r>
       <r>  -18.4758    1.0000 </r>
       <r>  -18.4714    1.0000 </r>
       <r>  -18.4626    1.0000 </r>
       <r>  -18.4580    1.0000 </r>
       <r>   -9.5697    1.0000 </r>
       <r>   -9.3981    1.0000 </r>
       <r>   -8.0507    1.0000 </r>
       <r>   -7.9688    1.0000 </r>
       <r>   -7.8633    1.0000 </r>
       <r>   -7.8431    1.0000 </r>
       <r>   -7.6238    1.0000 </r>
       <r>   -7.4737    1.0000 </r>
       <r>   -5.9692    1.0000 </r>
       <r>   -5.8042    1.0000 </r>
       <r>   -4.7675    1.0000 </r>
       <r>   -4.5301    1.0000 </r>
       <r>    0.2083    1.0000 </r>
       <r>    0.4247    1.0000 </r>
       <r>    1.2938    1.0000 </r>
       <r>    1.3136    1.0000 </r>
       <r>    1.4187    1.0000 </r>
       <r>    1.4565    1.0000 </r>
       <r>    1.5551    1.0000 </r>
       <r>    1.6500    1.0000 </r>
       <r>    2.3157    1.0000 </r>
       <r>    2.3426    1.0000 </r>
       <r>    2.5752    1.0000 </r>
       <r>    2.6033    1.0000 </r>
       <r>    2.6916    1.0000 </r>
       <r>    2.7686    1.0000 </r>
       <r>    2.9383    1.0000 </r>
       <r>    3.0994    1.0000 </r>
       <r>    3.1645    1.0000 </r>
       <r>    3.1972    1.0000 </r>
       <r>    3.2776    1.0000 </r>
[...]
       <r>  -18.5491    1.0000 </r>
       <r>  -18.5406    1.0000 </r>
       <r>  -18.5351    1.0000 </r>
       <r>  -18.5313    1.0000 </r>
       <r>  -18.5285    1.0000 </r>
       <r>  -18.5181    1.0000 </r>
       <r>  -18.5124    1.0000 </r>
       <r>  -18.5083    1.0000 </r>
       <r>  -18.5053    1.0000 </r>
       <r>  -18.5032    1.0000 </r>
       <r>  -18.4953    1.0000 </r>
       <r>  -18.4931    1.0000 </r>
       <r>  -18.4846    1.0000 </r>
       <r>  -18.4747    1.0000 </r>
       <r>  -18.4722    1.0000 </r>
       <r>  -18.4622    1.0000 </r>
       <r>  -18.4588    1.0000 </r>
       <r>   -9.1891    1.0000 </r>
       <r>   -9.0301    1.0000 </r>
       <r>   -7.8240    1.0000 </r>
       <r>   -7.8121    1.0000 </r>
       <r>   -7.7292    1.0000 </r>
       <r>   -7.6360    1.0000 </r>
       <r>   -7.4991    1.0000 </r>
       <r>   -7.3820    1.0000 </r>
       <r>   -6.2036    1.0000 </r>
       <r>   -6.1167    1.0000 </r>
       <r>   -5.0936    1.0000 </r>
       <r>   -4.9384    1.0000 </r>
       <r>    0.1681    1.0000 </r>
       <r>    0.1861    1.0000 </r>
       <r>    0.5306    1.0000 </r>
       <r>    0.5840    1.0000 </r>
       <r>    0.6573    1.0000 </r>
       <r>    0.9918    1.0000 </r>
       <r>    1.1805    1.0000 </r>
       <r>    1.2388    1.0000 </r>
       <r>    1.7937    1.0000 </r>
       <r>    1.9386    1.0000 </r>
       <r>    2.1958    1.0000 </r>
       <r>    2.4374    1.0000 </r>
       <r>    2.5737    1.0000 </r>
       <r>    2.6162    1.0000 </r>
       <r>    2.7369    1.0000 </r>
       <r>    2.7669    1.0000 </r>
       <r>    3.1191    1.0000 </r>
       <r>    3.1470    1.0000 </r>
       <r>    3.2777    1.0000 </r>
       <r>    3.3878    1.0000 </r>
       <r>    3.5103    1.0000 </r>
       <r>    3.5353    1.0000 </r>
       <r>    3.5894    1.0000 </r>
       <r>    3.6893    1.0000 </r>
       <r>    6.0645    0.0000 </r>
       <r>    6.1187    0.0000 </r>
       <r>    6.4377    0.0000 </r>
       <r>    6.7140    0.0000 </r>
       <r>    7.0260    0.0000 </r>
       <r>    7.0812    0.0000 </r>
       <r>    7.3410    0.0000 </r>
       <r>    7.3863    0.0000 </r>
       <r>    7.5772    0.0000 </r>
       <r>    7.6353    0.0000 </r>
       <r>    7.9201    0.0000 </r>
       <r>    8.0682    0.0000 </r>
      </set>
      <set comment="kpoint 44">
       <r>  -18.5756    1.0000 </r>
       <r>  -18.5654    1.0000 </r>
       <r>  -18.5510    1.0000 </r>
       <r>  -18.5491    1.0000 </r>
       <r>  -18.5406    1.0000 </r>
       <r>  -18.5352    1.0000 </r>
       <r>  -18.5314    1.0000 </r>
       <r>  -18.5285    1.0000 </r>
       <r>  -18.5181    1.0000 </r>
       <r>  -18.5124    1.0000 </r>
       <r>  -18.5084    1.0000 </r>
       <r>  -18.5053    1.0000 </r>
       <r>  -18.5032    1.0000 </r>
       <r>  -18.4953    1.0000 </r>
       <r>  -18.4931    1.0000 </r>
       <r>  -18.4846    1.0000 </r>
       <r>  -18.4747    1.0000 </r>
       <r>  -18.4722    1.0000 </r>
       <r>  -18.4623    1.0000 </r>
       <r>  -18.4589    1.0000 </r>
       <r>   -9.1592    1.0000 </r>
       <r>   -9.0311    1.0000 </r>
       <r>   -7.9873    1.0000 </r>
       <r>   -7.9018    1.0000 </r>
       <r>   -7.6546    1.0000 </r>
       <r>   -7.5459    1.0000 </r>
       <r>   -7.4383    1.0000 </r>
       <r>   -7.3891    1.0000 </r>
       <r>   -6.1823    1.0000 </r>
       <r>   -6.1153    1.0000 </r>
       <r>   -5.0714    1.0000 </r>
       <r>   -4.9588    1.0000 </r>
       <r>    0.1235    1.0000 </r>
       <r>    0.1596    1.0000 </r>
       <r>    0.4031    1.0000 </r>
       <r>    0.5521    1.0000 </r>
       <r>    0.7265    1.0000 </r>
       <r>    1.0222    1.0000 </r>
       <r>    1.2482    1.0000 </r>
       <r>    1.4614    1.0000 </r>
       <r>    1.7877    1.0000 </r>
       <r>    1.9741    1.0000 </r>
       <r>    2.1020    1.0000 </r>
       <r>    2.2543    1.0000 </r>
       <r>    2.2972    1.0000 </r>
       <r>    2.5643    1.0000 </r>
       <r>    2.8067    1.0000 </r>
       <r>    2.9898    1.0000 </r>
       <r>    3.1415    1.0000 </r>
       <r>    3.1886    1.0000 </r>
       <r>    3.2731    1.0000 </r>
       <r>    3.3260    1.0000 </r>
       <r>    3.4265    1.0000 </r>
       <r>    3.5493    1.0000 </r>
       <r>    3.6990    1.0000 </r>
       <r>    3.7325    1.0000 </r>
       <r>    5.9858    0.0000 </r>
       <r>    6.2683    0.0000 </r>
       <r>    6.5712    0.0000 </r>
       <r>    6.6506    0.0000 </r>
       <r>    6.9659    0.0000 </r>
       <r>    7.1644    0.0000 </r>
       <r>    7.2021    0.0000 </r>
       <r>    7.3412    0.0000 </r>
       <r>    7.5695    0.0000 </r>
       <r>    7.7336    0.0000 </r>
       <r>    7.8614    0.0000 </r>
       <r>    8.0870    0.0000 </r>
      </set>
      <set comment="kpoint 45">
       <r>  -18.5756    1.0000 </r>
       <r>  -18.5654    1.0000 </r>
       <r>  -18.5510    1.0000 </r>
       <r>  -18.5491    1.0000 </r>
       <r>  -18.5406    1.0000 </r>
       <r>  -18.5352    1.0000 </r>
       <r>  -18.5314    1.0000 </r>
       <r>  -18.5284    1.0000 </r>
       <r>  -18.5181    1.0000 </r>
       <r>  -18.5124    1.0000 </r>
       <r>  -18.5084    1.0000 </r>
       <r>  -18.5053    1.0000 </r>
       <r>  -18.5032    1.0000 </r>
       <r>  -18.4953    1.0000 </r>
       <r>  -18.4931    1.0000 </r>
       <r>  -18.4846    1.0000 </r>
       <r>  -18.4748    1.0000 </r>
       <r>  -18.4722    1.0000 </r>
       <r>  -18.4623    1.0000 </r>
       <r>  -18.4588    1.0000 </r>
       <r>   -9.1209    1.0000 </r>
       <r>   -9.0388    1.0000 </r>
       <r>   -8.0658    1.0000 </r>
       <r>   -7.9955    1.0000 </r>
       <r>   -7.5797    1.0000 </r>
       <r>   -7.5336    1.0000 </r>
       <r>   -7.4129    1.0000 </r>
       <r>   -7.3666    1.0000 </r>
       <r>   -6.1464    1.0000 </r>
       <r>   -6.1279    1.0000 </r>
       <r>   -5.0179    1.0000 </r>
       <r>   -5.0103    1.0000 </r>
       <r>    0.1228    1.0000 </r>
       <r>    0.1814    1.0000 </r>
       <r>    0.2996    1.0000 </r>
       <r>    0.3485    1.0000 </r>
       <r>    0.9329    1.0000 </r>
       <r>    0.9391    1.0000 </r>
       <r>    1.5681    1.0000 </r>
       <r>    1.5902    1.0000 </r>
       <r>    1.8242    1.0000 </r>
       <r>    1.8566    1.0000 </r>
       <r>    2.0683    1.0000 </r>
       <r>    2.1046    1.0000 </r>
       <r>    2.3280    1.0000 </r>
       <r>    2.3501    1.0000 </r>
       <r>    2.7571    1.0000 </r>
       <r>    2.7738    1.0000 </r>
       <r>    3.1413    1.0000 </r>
       <r>    3.1612    1.0000 </r>
       <r>    3.3623    1.0000 </r>
       <r>    3.3983    1.0000 </r>
       <r>    3.6401    1.0000 </r>
       <r>    3.6516    1.0000 </r>
       <r>    3.6964    1.0000 </r>
       <r>    3.7007    1.0000 </r>
       <r>    6.0794    0.0000 </r>
       <r>    6.1233    0.0000 </r>
       <r>    6.6948    0.0000 </r>
       <r>    6.7085    0.0000 </r>
       <r>    7.0035    0.0000 </r>
       <r>    7.0561    0.0000 </r>
       <r>    7.1939    0.0000 </r>
       <r>    7.2119    0.0000 </r>
       <r>    7.6136    0.0000 </r>
       <r>    7.6563    0.0000 </r>
       <r>    8.0368    0.0000 </r>
       <r>    8.0514    0.0000 </r>
      </set>
      <set comment="kpoint 46">
       <r>  -18.5757    1.0000 </r>
       <r>  -18.5654    1.0000 </r>
       <r>  -18.5510    1.0000 </r>
       <r>  -18.5491    1.0000 </r>
       <r>  -18.5405    1.0000 </r>
       <r>  -18.5351    1.0000 </r>
       <r>  -18.5314    1.0000 </r>
       <r>  -18.5284    1.0000 </r>
       <r>  -18.5181    1.0000 </r>
       <r>  -18.5124    1.0000 </r>
       <r>  -18.5084    1.0000 </r>
       <r>  -18.5053    1.0000 </r>
       <r>  -18.5032    1.0000 </r>
       <r>  -18.4953    1.0000 </r>
       <r>  -18.4931    1.0000 </r>
       <r>  -18.4846    1.0000 </r>
       <r>  -18.4748    1.0000 </r>
       <r>  -18.4722    1.0000 </r>
       <r>  -18.4623    1.0000 </r>
       <r>  -18.4588    1.0000 </r>
       <r>   -9.1605    1.0000 </r>
       <r>   -9.0291    1.0000 </r>
       <r>   -7.9965    1.0000 </r>
       <r>   -7.9002    1.0000 </r>
       <r>   -7.6316    1.0000 </r>
       <r>   -7.5475    1.0000 </r>
       <r>   -7.4685    1.0000 </r>
       <r>   -7.3733    1.0000 </r>
       <r>   -6.1817    1.0000 </r>
       <r>   -6.1164    1.0000 </r>
       <r>   -5.0683    1.0000 </r>
       <r>   -4.9616    1.0000 </r>
       <r>    0.1315    1.0000 </r>
       <r>    0.1517    1.0000 </r>
       <r>    0.4013    1.0000 </r>
       <r>    0.5589    1.0000 </r>
       <r>    0.7292    1.0000 </r>
       <r>    1.0267    1.0000 </r>
       <r>    1.2016    1.0000 </r>
       <r>    1.5161    1.0000 </r>
       <r>    1.7744    1.0000 </r>
       <r>    1.9574    1.0000 </r>
       <r>    2.1006    1.0000 </r>
       <r>    2.2399    1.0000 </r>
       <r>    2.3176    1.0000 </r>
       <r>    2.5561    1.0000 </r>
       <r>    2.8241    1.0000 </r>
       <r>    2.9926    1.0000 </r>
       <r>    3.1343    1.0000 </r>
       <r>    3.1883    1.0000 </r>
       <r>    3.2854    1.0000 </r>
       <r>    3.3335    1.0000 </r>
       <r>    3.3972    1.0000 </r>
       <r>    3.5528    1.0000 </r>
       <r>    3.7084    1.0000 </r>
       <r>    3.7335    1.0000 </r>
       <r>    6.0191    0.0000 </r>
       <r>    6.2513    0.0000 </r>
       <r>    6.5372    0.0000 </r>
       <r>    6.6536    0.0000 </r>
       <r>    6.9468    0.0000 </r>
       <r>    7.1552    0.0000 </r>
       <r>    7.2255    0.0000 </r>
       <r>    7.3528    0.0000 </r>
       <r>    7.5495    0.0000 </r>
       <r>    7.7357    0.0000 </r>
       <r>    7.8713    0.0000 </r>
       <r>    8.0959    0.0000 </r>
      </set>
      <set comment="kpoint 47">
       <r>  -18.5729    1.0000 </r>
       <r>  -18.5692    1.0000 </r>
       <r>  -18.5518    1.0000 </r>
       <r>  -18.5477    1.0000 </r>
       <r>  -18.5433    1.0000 </r>
       <r>  -18.5338    1.0000 </r>
       <r>  -18.5318    1.0000 </r>
       <r>  -18.5271    1.0000 </r>
       <r>  -18.5181    1.0000 </r>
       <r>  -18.5164    1.0000 </r>
       <r>  -18.5056    1.0000 </r>
       <r>  -18.5047    1.0000 </r>
       <r>  -18.5026    1.0000 </r>
       <r>  -18.4999    1.0000 </r>
       <r>  -18.4940    1.0000 </r>
       <r>  -18.4854    1.0000 </r>
       <r>  -18.4751    1.0000 </r>
       <r>  -18.4722    1.0000 </r>
       <r>  -18.4621    1.0000 </r>
       <r>  -18.4588    1.0000 </r>
       <r>   -9.4721    1.0000 </r>
       <r>   -9.3033    1.0000 </r>
       <r>   -7.9802    1.0000 </r>
       <r>   -7.9151    1.0000 </r>
       <r>   -7.8218    1.0000 </r>
       <r>   -7.7907    1.0000 </r>
       <r>   -7.5880    1.0000 </r>
       <r>   -7.4457    1.0000 </r>
       <r>   -6.0371    1.0000 </r>
       <r>   -5.8982    1.0000 </r>
       <r>   -4.8456    1.0000 </r>
       <r>   -4.6313    1.0000 </r>
       <r>    0.2492    1.0000 </r>
       <r>    0.3769    1.0000 </r>
       <r>    0.8654    1.0000 </r>
       <r>    0.9495    1.0000 </r>
       <r>    1.1382    1.0000 </r>
       <r>    1.3940    1.0000 </r>
       <r>    1.4713    1.0000 </r>
       <r>    1.6763    1.0000 </r>
       <r>    2.1577    1.0000 </r>
       <r>    2.3147    1.0000 </r>
       <r>    2.3448    1.0000 </r>
       <r>    2.4401    1.0000 </r>
       <r>    2.5709    1.0000 </r>
       <r>    2.7456    1.0000 </r>
       <r>    2.9476    1.0000 </r>
       <r>    3.0089    1.0000 </r>
       <r>    3.0743    1.0000 </r>
       <r>    3.1947    1.0000 </r>
       <r>    3.2733    1.0000 </r>
       <r>    3.4171    1.0000 </r>
       <r>    3.5540    1.0000 </r>
       <r>    3.6039    1.0000 </r>
       <r>    3.8047    1.0000 </r>
       <r>    3.9169    1.0000 </r>
       <r>    6.0067    0.0000 </r>
       <r>    6.0847    0.0000 </r>
       <r>    6.1620    0.0000 </r>
       <r>    6.2654    0.0000 </r>
       <r>    6.7423    0.0000 </r>
       <r>    7.0222    0.0000 </r>
       <r>    7.0533    0.0000 </r>
       <r>    7.1047    0.0000 </r>
       <r>    7.4687    0.0000 </r>
       <r>    7.6096    0.0000 </r>
       <r>    7.8926    0.0000 </r>
       <r>    7.9480    0.0000 </r>
      </set>
      <set comment="kpoint 48">
       <r>  -18.5729    1.0000 </r>
       <r>  -18.5691    1.0000 </r>
       <r>  -18.5518    1.0000 </r>
       <r>  -18.5476    1.0000 </r>
       <r>  -18.5433    1.0000 </r>
       <r>  -18.5338    1.0000 </r>
       <r>  -18.5317    1.0000 </r>
       <r>  -18.5271    1.0000 </r>
       <r>  -18.5181    1.0000 </r>
       <r>  -18.5163    1.0000 </r>
       <r>  -18.5055    1.0000 </r>
       <r>  -18.5046    1.0000 </r>
       <r>  -18.5026    1.0000 </r>
       <r>  -18.4999    1.0000 </r>
       <r>  -18.4939    1.0000 </r>
       <r>  -18.4853    1.0000 </r>
       <r>  -18.4750    1.0000 </r>
       <r>  -18.4721    1.0000 </r>
       <r>  -18.4621    1.0000 </r>
       <r>  -18.4587    1.0000 </r>
       <r>   -9.4402    1.0000 </r>
       <r>   -9.3043    1.0000 </r>
       <r>   -8.1484    1.0000 </r>
       <r>   -8.0582    1.0000 </r>
       <r>   -7.7654    1.0000 </r>
       <r>   -7.6259    1.0000 </r>
       <r>   -7.5157    1.0000 </r>
       <r>   -7.4504    1.0000 </r>
       <r>   -6.0170    1.0000 </r>
       <r>   -5.9146    1.0000 </r>
       <r>   -4.8023    1.0000 </r>
       <r>   -4.6504    1.0000 </r>
       <r>    0.1846    1.0000 </r>
       <r>    0.2918    1.0000 </r>
       <r>    0.7873    1.0000 </r>
       <r>    0.8625    1.0000 </r>
       <r>    1.1503    1.0000 </r>
       <r>    1.3724    1.0000 </r>
       <r>    1.5396    1.0000 </r>
       <r>    1.6939    1.0000 </r>
       <r>    2.0738    1.0000 </r>
       <r>    2.1965    1.0000 </r>
       <r>    2.2985    1.0000 </r>
       <r>    2.5238    1.0000 </r>
       <r>    2.6802    1.0000 </r>
       <r>    2.8277    1.0000 </r>
       <r>    2.9080    1.0000 </r>
       <r>    2.9401    1.0000 </r>
       <r>    3.1381    1.0000 </r>
       <r>    3.2522    1.0000 </r>
       <r>    3.4072    1.0000 </r>
       <r>    3.5507    1.0000 </r>
       <r>    3.6393    1.0000 </r>
       <r>    3.6755    1.0000 </r>
       <r>    3.8499    1.0000 </r>
       <r>    3.8984    1.0000 </r>
       <r>    5.8647    0.0000 </r>
       <r>    6.0317    0.0000 </r>
       <r>    6.2886    0.0000 </r>
       <r>    6.4627    0.0000 </r>
       <r>    6.6791    0.0000 </r>
       <r>    6.8570    0.0000 </r>
       <r>    7.0099    0.0000 </r>
       <r>    7.0633    0.0000 </r>
       <r>    7.3751    0.0000 </r>
       <r>    7.5962    0.0000 </r>
       <r>    7.7677    0.0000 </r>
       <r>    7.8648    0.0000 </r>
      </set>
      <set comment="kpoint 49">
       <r>  -18.5729    1.0000 </r>
       <r>  -18.5692    1.0000 </r>
       <r>  -18.5518    1.0000 </r>
       <r>  -18.5476    1.0000 </r>
       <r>  -18.5433    1.0000 </r>
       <r>  -18.5338    1.0000 </r>
       <r>  -18.5318    1.0000 </r>
       <r>  -18.5271    1.0000 </r>
       <r>  -18.5181    1.0000 </r>
       <r>  -18.5164    1.0000 </r>
       <r>  -18.5056    1.0000 </r>
       <r>  -18.5047    1.0000 </r>
       <r>  -18.5026    1.0000 </r>
       <r>  -18.4999    1.0000 </r>
       <r>  -18.4940    1.0000 </r>
       <r>  -18.4854    1.0000 </r>
       <r>  -18.4750    1.0000 </r>
       <r>  -18.4722    1.0000 </r>
       <r>  -18.4621    1.0000 </r>
       <r>  -18.4588    1.0000 </r>
       <r>   -9.3994    1.0000 </r>
       <r>   -9.3123    1.0000 </r>
       <r>   -8.2423    1.0000 </r>
       <r>   -8.1649    1.0000 </r>
       <r>   -7.6743    1.0000 </r>
       <r>   -7.6181    1.0000 </r>
       <r>   -7.4724    1.0000 </r>
       <r>   -7.4177    1.0000 </r>
       <r>   -5.9664    1.0000 </r>
       <r>   -5.9593    1.0000 </r>
       <r>   -4.7273    1.0000 </r>
       <r>   -4.7020    1.0000 </r>
       <r>    0.1346    1.0000 </r>
       <r>    0.2098    1.0000 </r>
       <r>    0.6862    1.0000 </r>
       <r>    0.7452    1.0000 </r>
       <r>    1.3069    1.0000 </r>
       <r>    1.3092    1.0000 </r>
       <r>    1.6622    1.0000 </r>
       <r>    1.6809    1.0000 </r>
       <r>    2.0244    1.0000 </r>
       <r>    2.0459    1.0000 </r>
       <r>    2.3652    1.0000 </r>
       <r>    2.4132    1.0000 </r>
       <r>    2.6296    1.0000 </r>
       <r>    2.6664    1.0000 </r>
       <r>    3.0301    1.0000 </r>
       <r>    3.0740    1.0000 </r>
       <r>    3.3197    1.0000 </r>
       <r>    3.3328    1.0000 </r>
       <r>    3.5919    1.0000 </r>
       <r>    3.6039    1.0000 </r>
       <r>    3.7583    1.0000 </r>
       <r>    3.7848    1.0000 </r>
       <r>    3.8065    1.0000 </r>
       <r>    3.8299    1.0000 </r>
       <r>    5.8786    0.0000 </r>
       <r>    5.9065    0.0000 </r>
       <r>    6.4959    0.0000 </r>
       <r>    6.5099    0.0000 </r>
       <r>    6.7052    0.0000 </r>
       <r>    6.7454    0.0000 </r>
       <r>    6.8252    0.0000 </r>
       <r>    6.8576    0.0000 </r>
       <r>    7.4810    0.0000 </r>
       <r>    7.5319    0.0000 </r>
       <r>    7.7042    0.0000 </r>
       <r>    7.7168    0.0000 </r>
      </set>
      <set comment="kpoint 50">
       <r>  -18.5729    1.0000 </r>
       <r>  -18.5691    1.0000 </r>
       <r>  -18.5518    1.0000 </r>
       <r>  -18.5476    1.0000 </r>
       <r>  -18.5432    1.0000 </r>
       <r>  -18.5338    1.0000 </r>
       <r>  -18.5317    1.0000 </r>
       <r>  -18.5270    1.0000 </r>
       <r>  -18.5181    1.0000 </r>
       <r>  -18.5163    1.0000 </r>
       <r>  -18.5055    1.0000 </r>
       <r>  -18.5047    1.0000 </r>
       <r>  -18.5026    1.0000 </r>
       <r>  -18.4999    1.0000 </r>
       <r>  -18.4939    1.0000 </r>
       <r>  -18.4853    1.0000 </r>
       <r>  -18.4751    1.0000 </r>
       <r>  -18.4721    1.0000 </r>
       <r>  -18.4621    1.0000 </r>
       <r>  -18.4587    1.0000 </r>
       <r>   -9.4417    1.0000 </r>
       <r>   -9.3020    1.0000 </r>
       <r>   -8.1692    1.0000 </r>
       <r>   -8.0404    1.0000 </r>
       <r>   -7.7404    1.0000 </r>
       <r>   -7.6392    1.0000 </r>
       <r>   -7.5409    1.0000 </r>
       <r>   -7.4349    1.0000 </r>
       <r>   -6.0181    1.0000 </r>
       <r>   -5.9132    1.0000 </r>
       <r>   -4.8027    1.0000 </r>
       <r>   -4.6502    1.0000 </r>
       <r>    0.2084    1.0000 </r>
       <r>    0.2709    1.0000 </r>
       <r>    0.8002    1.0000 </r>
       <r>    0.8561    1.0000 </r>
       <r>    1.1363    1.0000 </r>
       <r>    1.3577    1.0000 </r>
       <r>    1.5182    1.0000 </r>
       <r>    1.7146    1.0000 </r>
       <r>    2.0737    1.0000 </r>
       <r>    2.2140    1.0000 </r>
       <r>    2.3343    1.0000 </r>
       <r>    2.5340    1.0000 </r>
       <r>    2.6491    1.0000 </r>
       <r>    2.8053    1.0000 </r>
       <r>    2.8950    1.0000 </r>
       <r>    2.9653    1.0000 </r>
       <r>    3.1403    1.0000 </r>
       <r>    3.2626    1.0000 </r>
       <r>    3.3865    1.0000 </r>
       <r>    3.5530    1.0000 </r>
       <r>    3.6285    1.0000 </r>
       <r>    3.6835    1.0000 </r>
       <r>    3.8561    1.0000 </r>
       <r>    3.9026    1.0000 </r>
       <r>    5.8786    0.0000 </r>
       <r>    6.0420    0.0000 </r>
       <r>    6.2680    0.0000 </r>
       <r>    6.4313    0.0000 </r>
       <r>    6.6607    0.0000 </r>
       <r>    6.8591    0.0000 </r>
       <r>    7.0014    0.0000 </r>
       <r>    7.1027    0.0000 </r>
       <r>    7.4112    0.0000 </r>
       <r>    7.5734    0.0000 </r>
       <r>    7.7467    0.0000 </r>
       <r>    7.8806    0.0000 </r>
      </set>
     </set>
    </set>
   </array>
  </eigenvalues>
  <separator name="orbital magnetization" >
   <v name="MAGDIPOLOUT">      0.00000000      0.00000000      0.00000000</v>
  </separator>
